

-- Copyright (C) 2023 NORCE

SPECGRID
100 1 50 1 F
/

COORD
 0.000000E+00 -2.500000E+00 0  0.000000E+00 -2.500000E+00  5.000000E+01
 5.000000E+00 -4.124598E+00 0  5.000000E+00 -4.124598E+00  5.000000E+01
 1.000000E+01 -5.749197E+00 0  1.000000E+01 -5.749197E+00  5.000000E+01
 1.500000E+01 -7.373795E+00 0  1.500000E+01 -7.373795E+00  5.000000E+01
 2.000000E+01 -8.998394E+00 0  2.000000E+01 -8.998394E+00  5.000000E+01
 2.500000E+01 -1.062299E+01 0  2.500000E+01 -1.062299E+01  5.000000E+01
 3.000000E+01 -1.224759E+01 0  3.000000E+01 -1.224759E+01  5.000000E+01
 3.500000E+01 -1.387219E+01 0  3.500000E+01 -1.387219E+01  5.000000E+01
 4.000000E+01 -1.549679E+01 0  4.000000E+01 -1.549679E+01  5.000000E+01
 4.500000E+01 -1.712139E+01 0  4.500000E+01 -1.712139E+01  5.000000E+01
 5.000000E+01 -1.874598E+01 0  5.000000E+01 -1.874598E+01  5.000000E+01
 5.500000E+01 -2.037058E+01 0  5.500000E+01 -2.037058E+01  5.000000E+01
 6.000000E+01 -2.199518E+01 0  6.000000E+01 -2.199518E+01  5.000000E+01
 6.500000E+01 -2.361978E+01 0  6.500000E+01 -2.361978E+01  5.000000E+01
 7.000000E+01 -2.524438E+01 0  7.000000E+01 -2.524438E+01  5.000000E+01
 7.500000E+01 -2.686898E+01 0  7.500000E+01 -2.686898E+01  5.000000E+01
 8.000000E+01 -2.849358E+01 0  8.000000E+01 -2.849358E+01  5.000000E+01
 8.500000E+01 -3.011817E+01 0  8.500000E+01 -3.011817E+01  5.000000E+01
 9.000000E+01 -3.174277E+01 0  9.000000E+01 -3.174277E+01  5.000000E+01
 9.500000E+01 -3.336737E+01 0  9.500000E+01 -3.336737E+01  5.000000E+01
 1.000000E+02 -3.499197E+01 0  1.000000E+02 -3.499197E+01  5.000000E+01
 1.050000E+02 -3.661657E+01 0  1.050000E+02 -3.661657E+01  5.000000E+01
 1.100000E+02 -3.824117E+01 0  1.100000E+02 -3.824117E+01  5.000000E+01
 1.150000E+02 -3.986577E+01 0  1.150000E+02 -3.986577E+01  5.000000E+01
 1.200000E+02 -4.149036E+01 0  1.200000E+02 -4.149036E+01  5.000000E+01
 1.250000E+02 -4.311496E+01 0  1.250000E+02 -4.311496E+01  5.000000E+01
 1.300000E+02 -4.473956E+01 0  1.300000E+02 -4.473956E+01  5.000000E+01
 1.350000E+02 -4.636416E+01 0  1.350000E+02 -4.636416E+01  5.000000E+01
 1.400000E+02 -4.798876E+01 0  1.400000E+02 -4.798876E+01  5.000000E+01
 1.450000E+02 -4.961336E+01 0  1.450000E+02 -4.961336E+01  5.000000E+01
 1.500000E+02 -5.123795E+01 0  1.500000E+02 -5.123795E+01  5.000000E+01
 1.550000E+02 -5.286255E+01 0  1.550000E+02 -5.286255E+01  5.000000E+01
 1.600000E+02 -5.448715E+01 0  1.600000E+02 -5.448715E+01  5.000000E+01
 1.650000E+02 -5.611175E+01 0  1.650000E+02 -5.611175E+01  5.000000E+01
 1.700000E+02 -5.773635E+01 0  1.700000E+02 -5.773635E+01  5.000000E+01
 1.750000E+02 -5.936095E+01 0  1.750000E+02 -5.936095E+01  5.000000E+01
 1.800000E+02 -6.098555E+01 0  1.800000E+02 -6.098555E+01  5.000000E+01
 1.850000E+02 -6.261014E+01 0  1.850000E+02 -6.261014E+01  5.000000E+01
 1.900000E+02 -6.423474E+01 0  1.900000E+02 -6.423474E+01  5.000000E+01
 1.950000E+02 -6.585934E+01 0  1.950000E+02 -6.585934E+01  5.000000E+01
 2.000000E+02 -6.748394E+01 0  2.000000E+02 -6.748394E+01  5.000000E+01
 2.050000E+02 -6.910854E+01 0  2.050000E+02 -6.910854E+01  5.000000E+01
 2.100000E+02 -7.073314E+01 0  2.100000E+02 -7.073314E+01  5.000000E+01
 2.150000E+02 -7.235773E+01 0  2.150000E+02 -7.235773E+01  5.000000E+01
 2.200000E+02 -7.398233E+01 0  2.200000E+02 -7.398233E+01  5.000000E+01
 2.250000E+02 -7.560693E+01 0  2.250000E+02 -7.560693E+01  5.000000E+01
 2.300000E+02 -7.723153E+01 0  2.300000E+02 -7.723153E+01  5.000000E+01
 2.350000E+02 -7.885613E+01 0  2.350000E+02 -7.885613E+01  5.000000E+01
 2.400000E+02 -8.048073E+01 0  2.400000E+02 -8.048073E+01  5.000000E+01
 2.450000E+02 -8.210533E+01 0  2.450000E+02 -8.210533E+01  5.000000E+01
 2.500000E+02 -8.372992E+01 0  2.500000E+02 -8.372992E+01  5.000000E+01
 2.550000E+02 -8.535452E+01 0  2.550000E+02 -8.535452E+01  5.000000E+01
 2.600000E+02 -8.697912E+01 0  2.600000E+02 -8.697912E+01  5.000000E+01
 2.650000E+02 -8.860372E+01 0  2.650000E+02 -8.860372E+01  5.000000E+01
 2.700000E+02 -9.022832E+01 0  2.700000E+02 -9.022832E+01  5.000000E+01
 2.750000E+02 -9.185292E+01 0  2.750000E+02 -9.185292E+01  5.000000E+01
 2.800000E+02 -9.347751E+01 0  2.800000E+02 -9.347751E+01  5.000000E+01
 2.850000E+02 -9.510211E+01 0  2.850000E+02 -9.510211E+01  5.000000E+01
 2.900000E+02 -9.672671E+01 0  2.900000E+02 -9.672671E+01  5.000000E+01
 2.950000E+02 -9.835131E+01 0  2.950000E+02 -9.835131E+01  5.000000E+01
 3.000000E+02 -9.997591E+01 0  3.000000E+02 -9.997591E+01  5.000000E+01
 3.050000E+02 -1.016005E+02 0  3.050000E+02 -1.016005E+02  5.000000E+01
 3.100000E+02 -1.032251E+02 0  3.100000E+02 -1.032251E+02  5.000000E+01
 3.150000E+02 -1.048497E+02 0  3.150000E+02 -1.048497E+02  5.000000E+01
 3.200000E+02 -1.064743E+02 0  3.200000E+02 -1.064743E+02  5.000000E+01
 3.250000E+02 -1.080989E+02 0  3.250000E+02 -1.080989E+02  5.000000E+01
 3.300000E+02 -1.097235E+02 0  3.300000E+02 -1.097235E+02  5.000000E+01
 3.350000E+02 -1.113481E+02 0  3.350000E+02 -1.113481E+02  5.000000E+01
 3.400000E+02 -1.129727E+02 0  3.400000E+02 -1.129727E+02  5.000000E+01
 3.450000E+02 -1.145973E+02 0  3.450000E+02 -1.145973E+02  5.000000E+01
 3.500000E+02 -1.162219E+02 0  3.500000E+02 -1.162219E+02  5.000000E+01
 3.550000E+02 -1.178465E+02 0  3.550000E+02 -1.178465E+02  5.000000E+01
 3.600000E+02 -1.194711E+02 0  3.600000E+02 -1.194711E+02  5.000000E+01
 3.650000E+02 -1.210957E+02 0  3.650000E+02 -1.210957E+02  5.000000E+01
 3.700000E+02 -1.227203E+02 0  3.700000E+02 -1.227203E+02  5.000000E+01
 3.750000E+02 -1.243449E+02 0  3.750000E+02 -1.243449E+02  5.000000E+01
 3.800000E+02 -1.259695E+02 0  3.800000E+02 -1.259695E+02  5.000000E+01
 3.850000E+02 -1.275941E+02 0  3.850000E+02 -1.275941E+02  5.000000E+01
 3.900000E+02 -1.292187E+02 0  3.900000E+02 -1.292187E+02  5.000000E+01
 3.950000E+02 -1.308433E+02 0  3.950000E+02 -1.308433E+02  5.000000E+01
 4.000000E+02 -1.324679E+02 0  4.000000E+02 -1.324679E+02  5.000000E+01
 4.050000E+02 -1.340925E+02 0  4.050000E+02 -1.340925E+02  5.000000E+01
 4.100000E+02 -1.357171E+02 0  4.100000E+02 -1.357171E+02  5.000000E+01
 4.150000E+02 -1.373417E+02 0  4.150000E+02 -1.373417E+02  5.000000E+01
 4.200000E+02 -1.389663E+02 0  4.200000E+02 -1.389663E+02  5.000000E+01
 4.250000E+02 -1.405909E+02 0  4.250000E+02 -1.405909E+02  5.000000E+01
 4.300000E+02 -1.422155E+02 0  4.300000E+02 -1.422155E+02  5.000000E+01
 4.350000E+02 -1.438401E+02 0  4.350000E+02 -1.438401E+02  5.000000E+01
 4.400000E+02 -1.454647E+02 0  4.400000E+02 -1.454647E+02  5.000000E+01
 4.450000E+02 -1.470893E+02 0  4.450000E+02 -1.470893E+02  5.000000E+01
 4.500000E+02 -1.487139E+02 0  4.500000E+02 -1.487139E+02  5.000000E+01
 4.550000E+02 -1.503385E+02 0  4.550000E+02 -1.503385E+02  5.000000E+01
 4.600000E+02 -1.519631E+02 0  4.600000E+02 -1.519631E+02  5.000000E+01
 4.650000E+02 -1.535877E+02 0  4.650000E+02 -1.535877E+02  5.000000E+01
 4.700000E+02 -1.552123E+02 0  4.700000E+02 -1.552123E+02  5.000000E+01
 4.750000E+02 -1.568369E+02 0  4.750000E+02 -1.568369E+02  5.000000E+01
 4.800000E+02 -1.584615E+02 0  4.800000E+02 -1.584615E+02  5.000000E+01
 4.850000E+02 -1.600861E+02 0  4.850000E+02 -1.600861E+02  5.000000E+01
 4.900000E+02 -1.617107E+02 0  4.900000E+02 -1.617107E+02  5.000000E+01
 4.950000E+02 -1.633352E+02 0  4.950000E+02 -1.633352E+02  5.000000E+01
 5.000000E+02 -1.649598E+02 0  5.000000E+02 -1.649598E+02  5.000000E+01
 0.000000E+00  2.500000E+00 0  0.000000E+00  2.500000E+00  5.000000E+01
 5.000000E+00  4.124598E+00 0  5.000000E+00  4.124598E+00  5.000000E+01
 1.000000E+01  5.749197E+00 0  1.000000E+01  5.749197E+00  5.000000E+01
 1.500000E+01  7.373795E+00 0  1.500000E+01  7.373795E+00  5.000000E+01
 2.000000E+01  8.998394E+00 0  2.000000E+01  8.998394E+00  5.000000E+01
 2.500000E+01  1.062299E+01 0  2.500000E+01  1.062299E+01  5.000000E+01
 3.000000E+01  1.224759E+01 0  3.000000E+01  1.224759E+01  5.000000E+01
 3.500000E+01  1.387219E+01 0  3.500000E+01  1.387219E+01  5.000000E+01
 4.000000E+01  1.549679E+01 0  4.000000E+01  1.549679E+01  5.000000E+01
 4.500000E+01  1.712139E+01 0  4.500000E+01  1.712139E+01  5.000000E+01
 5.000000E+01  1.874598E+01 0  5.000000E+01  1.874598E+01  5.000000E+01
 5.500000E+01  2.037058E+01 0  5.500000E+01  2.037058E+01  5.000000E+01
 6.000000E+01  2.199518E+01 0  6.000000E+01  2.199518E+01  5.000000E+01
 6.500000E+01  2.361978E+01 0  6.500000E+01  2.361978E+01  5.000000E+01
 7.000000E+01  2.524438E+01 0  7.000000E+01  2.524438E+01  5.000000E+01
 7.500000E+01  2.686898E+01 0  7.500000E+01  2.686898E+01  5.000000E+01
 8.000000E+01  2.849358E+01 0  8.000000E+01  2.849358E+01  5.000000E+01
 8.500000E+01  3.011817E+01 0  8.500000E+01  3.011817E+01  5.000000E+01
 9.000000E+01  3.174277E+01 0  9.000000E+01  3.174277E+01  5.000000E+01
 9.500000E+01  3.336737E+01 0  9.500000E+01  3.336737E+01  5.000000E+01
 1.000000E+02  3.499197E+01 0  1.000000E+02  3.499197E+01  5.000000E+01
 1.050000E+02  3.661657E+01 0  1.050000E+02  3.661657E+01  5.000000E+01
 1.100000E+02  3.824117E+01 0  1.100000E+02  3.824117E+01  5.000000E+01
 1.150000E+02  3.986577E+01 0  1.150000E+02  3.986577E+01  5.000000E+01
 1.200000E+02  4.149036E+01 0  1.200000E+02  4.149036E+01  5.000000E+01
 1.250000E+02  4.311496E+01 0  1.250000E+02  4.311496E+01  5.000000E+01
 1.300000E+02  4.473956E+01 0  1.300000E+02  4.473956E+01  5.000000E+01
 1.350000E+02  4.636416E+01 0  1.350000E+02  4.636416E+01  5.000000E+01
 1.400000E+02  4.798876E+01 0  1.400000E+02  4.798876E+01  5.000000E+01
 1.450000E+02  4.961336E+01 0  1.450000E+02  4.961336E+01  5.000000E+01
 1.500000E+02  5.123795E+01 0  1.500000E+02  5.123795E+01  5.000000E+01
 1.550000E+02  5.286255E+01 0  1.550000E+02  5.286255E+01  5.000000E+01
 1.600000E+02  5.448715E+01 0  1.600000E+02  5.448715E+01  5.000000E+01
 1.650000E+02  5.611175E+01 0  1.650000E+02  5.611175E+01  5.000000E+01
 1.700000E+02  5.773635E+01 0  1.700000E+02  5.773635E+01  5.000000E+01
 1.750000E+02  5.936095E+01 0  1.750000E+02  5.936095E+01  5.000000E+01
 1.800000E+02  6.098555E+01 0  1.800000E+02  6.098555E+01  5.000000E+01
 1.850000E+02  6.261014E+01 0  1.850000E+02  6.261014E+01  5.000000E+01
 1.900000E+02  6.423474E+01 0  1.900000E+02  6.423474E+01  5.000000E+01
 1.950000E+02  6.585934E+01 0  1.950000E+02  6.585934E+01  5.000000E+01
 2.000000E+02  6.748394E+01 0  2.000000E+02  6.748394E+01  5.000000E+01
 2.050000E+02  6.910854E+01 0  2.050000E+02  6.910854E+01  5.000000E+01
 2.100000E+02  7.073314E+01 0  2.100000E+02  7.073314E+01  5.000000E+01
 2.150000E+02  7.235773E+01 0  2.150000E+02  7.235773E+01  5.000000E+01
 2.200000E+02  7.398233E+01 0  2.200000E+02  7.398233E+01  5.000000E+01
 2.250000E+02  7.560693E+01 0  2.250000E+02  7.560693E+01  5.000000E+01
 2.300000E+02  7.723153E+01 0  2.300000E+02  7.723153E+01  5.000000E+01
 2.350000E+02  7.885613E+01 0  2.350000E+02  7.885613E+01  5.000000E+01
 2.400000E+02  8.048073E+01 0  2.400000E+02  8.048073E+01  5.000000E+01
 2.450000E+02  8.210533E+01 0  2.450000E+02  8.210533E+01  5.000000E+01
 2.500000E+02  8.372992E+01 0  2.500000E+02  8.372992E+01  5.000000E+01
 2.550000E+02  8.535452E+01 0  2.550000E+02  8.535452E+01  5.000000E+01
 2.600000E+02  8.697912E+01 0  2.600000E+02  8.697912E+01  5.000000E+01
 2.650000E+02  8.860372E+01 0  2.650000E+02  8.860372E+01  5.000000E+01
 2.700000E+02  9.022832E+01 0  2.700000E+02  9.022832E+01  5.000000E+01
 2.750000E+02  9.185292E+01 0  2.750000E+02  9.185292E+01  5.000000E+01
 2.800000E+02  9.347751E+01 0  2.800000E+02  9.347751E+01  5.000000E+01
 2.850000E+02  9.510211E+01 0  2.850000E+02  9.510211E+01  5.000000E+01
 2.900000E+02  9.672671E+01 0  2.900000E+02  9.672671E+01  5.000000E+01
 2.950000E+02  9.835131E+01 0  2.950000E+02  9.835131E+01  5.000000E+01
 3.000000E+02  9.997591E+01 0  3.000000E+02  9.997591E+01  5.000000E+01
 3.050000E+02  1.016005E+02 0  3.050000E+02  1.016005E+02  5.000000E+01
 3.100000E+02  1.032251E+02 0  3.100000E+02  1.032251E+02  5.000000E+01
 3.150000E+02  1.048497E+02 0  3.150000E+02  1.048497E+02  5.000000E+01
 3.200000E+02  1.064743E+02 0  3.200000E+02  1.064743E+02  5.000000E+01
 3.250000E+02  1.080989E+02 0  3.250000E+02  1.080989E+02  5.000000E+01
 3.300000E+02  1.097235E+02 0  3.300000E+02  1.097235E+02  5.000000E+01
 3.350000E+02  1.113481E+02 0  3.350000E+02  1.113481E+02  5.000000E+01
 3.400000E+02  1.129727E+02 0  3.400000E+02  1.129727E+02  5.000000E+01
 3.450000E+02  1.145973E+02 0  3.450000E+02  1.145973E+02  5.000000E+01
 3.500000E+02  1.162219E+02 0  3.500000E+02  1.162219E+02  5.000000E+01
 3.550000E+02  1.178465E+02 0  3.550000E+02  1.178465E+02  5.000000E+01
 3.600000E+02  1.194711E+02 0  3.600000E+02  1.194711E+02  5.000000E+01
 3.650000E+02  1.210957E+02 0  3.650000E+02  1.210957E+02  5.000000E+01
 3.700000E+02  1.227203E+02 0  3.700000E+02  1.227203E+02  5.000000E+01
 3.750000E+02  1.243449E+02 0  3.750000E+02  1.243449E+02  5.000000E+01
 3.800000E+02  1.259695E+02 0  3.800000E+02  1.259695E+02  5.000000E+01
 3.850000E+02  1.275941E+02 0  3.850000E+02  1.275941E+02  5.000000E+01
 3.900000E+02  1.292187E+02 0  3.900000E+02  1.292187E+02  5.000000E+01
 3.950000E+02  1.308433E+02 0  3.950000E+02  1.308433E+02  5.000000E+01
 4.000000E+02  1.324679E+02 0  4.000000E+02  1.324679E+02  5.000000E+01
 4.050000E+02  1.340925E+02 0  4.050000E+02  1.340925E+02  5.000000E+01
 4.100000E+02  1.357171E+02 0  4.100000E+02  1.357171E+02  5.000000E+01
 4.150000E+02  1.373417E+02 0  4.150000E+02  1.373417E+02  5.000000E+01
 4.200000E+02  1.389663E+02 0  4.200000E+02  1.389663E+02  5.000000E+01
 4.250000E+02  1.405909E+02 0  4.250000E+02  1.405909E+02  5.000000E+01
 4.300000E+02  1.422155E+02 0  4.300000E+02  1.422155E+02  5.000000E+01
 4.350000E+02  1.438401E+02 0  4.350000E+02  1.438401E+02  5.000000E+01
 4.400000E+02  1.454647E+02 0  4.400000E+02  1.454647E+02  5.000000E+01
 4.450000E+02  1.470893E+02 0  4.450000E+02  1.470893E+02  5.000000E+01
 4.500000E+02  1.487139E+02 0  4.500000E+02  1.487139E+02  5.000000E+01
 4.550000E+02  1.503385E+02 0  4.550000E+02  1.503385E+02  5.000000E+01
 4.600000E+02  1.519631E+02 0  4.600000E+02  1.519631E+02  5.000000E+01
 4.650000E+02  1.535877E+02 0  4.650000E+02  1.535877E+02  5.000000E+01
 4.700000E+02  1.552123E+02 0  4.700000E+02  1.552123E+02  5.000000E+01
 4.750000E+02  1.568369E+02 0  4.750000E+02  1.568369E+02  5.000000E+01
 4.800000E+02  1.584615E+02 0  4.800000E+02  1.584615E+02  5.000000E+01
 4.850000E+02  1.600861E+02 0  4.850000E+02  1.600861E+02  5.000000E+01
 4.900000E+02  1.617107E+02 0  4.900000E+02  1.617107E+02  5.000000E+01
 4.950000E+02  1.633352E+02 0  4.950000E+02  1.633352E+02  5.000000E+01
 5.000000E+02  1.649598E+02 0  5.000000E+02  1.649598E+02  5.000000E+01
/

ZCORN
  0.000000E+00  4.994348E-01
  4.994348E-01  1.949830E+00
  1.949830E+00  4.212147E+00
  4.212147E+00  7.069830E+00
  7.069830E+00  1.025000E+01
  1.025000E+01  1.345017E+01
  1.345017E+01  1.636785E+01
  1.636785E+01  1.873017E+01
  1.873017E+01  2.032057E+01
  2.032057E+01  2.100000E+01
  2.100000E+01  2.072057E+01
  2.072057E+01  1.953017E+01
  1.953017E+01  1.756785E+01
  1.756785E+01  1.505017E+01
  1.505017E+01  1.225000E+01
  1.225000E+01  9.469830E+00
  9.469830E+00  7.012147E+00
  7.012147E+00  5.149830E+00
  5.149830E+00  4.099435E+00
  4.099435E+00  4.000000E+00
  4.000000E+00  4.899435E+00
  4.899435E+00  6.749830E+00
  6.749830E+00  9.412147E+00
  9.412147E+00  1.266983E+01
  1.266983E+01  1.625000E+01
  1.625000E+01  1.985017E+01
  1.985017E+01  2.316785E+01
  2.316785E+01  2.593017E+01
  2.593017E+01  2.792057E+01
  2.792057E+01  2.900000E+01
  2.900000E+01  2.912057E+01
  2.912057E+01  2.833017E+01
  2.833017E+01  2.676785E+01
  2.676785E+01  2.465017E+01
  2.465017E+01  2.225000E+01
  2.225000E+01  1.986983E+01
  1.986983E+01  1.781215E+01
  1.781215E+01  1.634983E+01
  1.634983E+01  1.569943E+01
  1.569943E+01  1.600000E+01
  1.600000E+01  1.729943E+01
  1.729943E+01  1.954983E+01
  1.954983E+01  2.261215E+01
  2.261215E+01  2.626983E+01
  2.626983E+01  3.025000E+01
  3.025000E+01  3.425017E+01
  3.425017E+01  3.796785E+01
  3.796785E+01  4.113017E+01
  4.113017E+01  4.352057E+01
  4.352057E+01  4.500000E+01
  4.500000E+01  4.552057E+01
  4.552057E+01  4.513017E+01
  4.513017E+01  4.396785E+01
  4.396785E+01  4.225017E+01
  4.225017E+01  4.025000E+01
  4.025000E+01  3.826983E+01
  3.826983E+01  3.661215E+01
  3.661215E+01  3.554983E+01
  3.554983E+01  3.529943E+01
  3.529943E+01  3.600000E+01
  3.600000E+01  3.769943E+01
  3.769943E+01  4.034983E+01
  4.034983E+01  4.381215E+01
  4.381215E+01  4.786983E+01
  4.786983E+01  5.225000E+01
  5.225000E+01  5.665017E+01
  5.665017E+01  6.076785E+01
  6.076785E+01  6.433017E+01
  6.433017E+01  6.712057E+01
  6.712057E+01  6.900000E+01
  6.900000E+01  6.992057E+01
  6.992057E+01  6.993017E+01
  6.993017E+01  6.916785E+01
  6.916785E+01  6.785017E+01
  6.785017E+01  6.625000E+01
  6.625000E+01  6.466983E+01
  6.466983E+01  6.341215E+01
  6.341215E+01  6.274983E+01
  6.274983E+01  6.289943E+01
  6.289943E+01  6.400000E+01
  6.400000E+01  6.609943E+01
  6.609943E+01  6.914983E+01
  6.914983E+01  7.301215E+01
  7.301215E+01  7.746983E+01
  7.746983E+01  8.225000E+01
  8.225000E+01  8.705017E+01
  8.705017E+01  9.156785E+01
  9.156785E+01  9.553017E+01
  9.553017E+01  9.872057E+01
  9.872057E+01  1.010000E+02
  1.010000E+02  1.023206E+02
  1.023206E+02  1.027302E+02
  1.027302E+02  1.023679E+02
  1.023679E+02  1.014502E+02
  1.014502E+02  1.002500E+02
  1.002500E+02  9.906983E+01
  9.906983E+01  9.821215E+01
  9.821215E+01  9.794983E+01
  9.794983E+01  9.849943E+01
  9.849943E+01  1.000000E+02
  0.000000E+00  4.994348E-01
  4.994348E-01  1.949830E+00
  1.949830E+00  4.212147E+00
  4.212147E+00  7.069830E+00
  7.069830E+00  1.025000E+01
  1.025000E+01  1.345017E+01
  1.345017E+01  1.636785E+01
  1.636785E+01  1.873017E+01
  1.873017E+01  2.032057E+01
  2.032057E+01  2.100000E+01
  2.100000E+01  2.072057E+01
  2.072057E+01  1.953017E+01
  1.953017E+01  1.756785E+01
  1.756785E+01  1.505017E+01
  1.505017E+01  1.225000E+01
  1.225000E+01  9.469830E+00
  9.469830E+00  7.012147E+00
  7.012147E+00  5.149830E+00
  5.149830E+00  4.099435E+00
  4.099435E+00  4.000000E+00
  4.000000E+00  4.899435E+00
  4.899435E+00  6.749830E+00
  6.749830E+00  9.412147E+00
  9.412147E+00  1.266983E+01
  1.266983E+01  1.625000E+01
  1.625000E+01  1.985017E+01
  1.985017E+01  2.316785E+01
  2.316785E+01  2.593017E+01
  2.593017E+01  2.792057E+01
  2.792057E+01  2.900000E+01
  2.900000E+01  2.912057E+01
  2.912057E+01  2.833017E+01
  2.833017E+01  2.676785E+01
  2.676785E+01  2.465017E+01
  2.465017E+01  2.225000E+01
  2.225000E+01  1.986983E+01
  1.986983E+01  1.781215E+01
  1.781215E+01  1.634983E+01
  1.634983E+01  1.569943E+01
  1.569943E+01  1.600000E+01
  1.600000E+01  1.729943E+01
  1.729943E+01  1.954983E+01
  1.954983E+01  2.261215E+01
  2.261215E+01  2.626983E+01
  2.626983E+01  3.025000E+01
  3.025000E+01  3.425017E+01
  3.425017E+01  3.796785E+01
  3.796785E+01  4.113017E+01
  4.113017E+01  4.352057E+01
  4.352057E+01  4.500000E+01
  4.500000E+01  4.552057E+01
  4.552057E+01  4.513017E+01
  4.513017E+01  4.396785E+01
  4.396785E+01  4.225017E+01
  4.225017E+01  4.025000E+01
  4.025000E+01  3.826983E+01
  3.826983E+01  3.661215E+01
  3.661215E+01  3.554983E+01
  3.554983E+01  3.529943E+01
  3.529943E+01  3.600000E+01
  3.600000E+01  3.769943E+01
  3.769943E+01  4.034983E+01
  4.034983E+01  4.381215E+01
  4.381215E+01  4.786983E+01
  4.786983E+01  5.225000E+01
  5.225000E+01  5.665017E+01
  5.665017E+01  6.076785E+01
  6.076785E+01  6.433017E+01
  6.433017E+01  6.712057E+01
  6.712057E+01  6.900000E+01
  6.900000E+01  6.992057E+01
  6.992057E+01  6.993017E+01
  6.993017E+01  6.916785E+01
  6.916785E+01  6.785017E+01
  6.785017E+01  6.625000E+01
  6.625000E+01  6.466983E+01
  6.466983E+01  6.341215E+01
  6.341215E+01  6.274983E+01
  6.274983E+01  6.289943E+01
  6.289943E+01  6.400000E+01
  6.400000E+01  6.609943E+01
  6.609943E+01  6.914983E+01
  6.914983E+01  7.301215E+01
  7.301215E+01  7.746983E+01
  7.746983E+01  8.225000E+01
  8.225000E+01  8.705017E+01
  8.705017E+01  9.156785E+01
  9.156785E+01  9.553017E+01
  9.553017E+01  9.872057E+01
  9.872057E+01  1.010000E+02
  1.010000E+02  1.023206E+02
  1.023206E+02  1.027302E+02
  1.027302E+02  1.023679E+02
  1.023679E+02  1.014502E+02
  1.014502E+02  1.002500E+02
  1.002500E+02  9.906983E+01
  9.906983E+01  9.821215E+01
  9.821215E+01  9.794983E+01
  9.794983E+01  9.849943E+01
  9.849943E+01  1.000000E+02
  1.000000E+00  1.499435E+00
  1.499435E+00  2.949830E+00
  2.949830E+00  5.212147E+00
  5.212147E+00  8.069830E+00
  8.069830E+00  1.125000E+01
  1.125000E+01  1.445017E+01
  1.445017E+01  1.736785E+01
  1.736785E+01  1.973017E+01
  1.973017E+01  2.132057E+01
  2.132057E+01  2.200000E+01
  2.200000E+01  2.172057E+01
  2.172057E+01  2.053017E+01
  2.053017E+01  1.856785E+01
  1.856785E+01  1.605017E+01
  1.605017E+01  1.325000E+01
  1.325000E+01  1.046983E+01
  1.046983E+01  8.012147E+00
  8.012147E+00  6.149830E+00
  6.149830E+00  5.099435E+00
  5.099435E+00  5.000000E+00
  5.000000E+00  5.899435E+00
  5.899435E+00  7.749830E+00
  7.749830E+00  1.041215E+01
  1.041215E+01  1.366983E+01
  1.366983E+01  1.725000E+01
  1.725000E+01  2.085017E+01
  2.085017E+01  2.416785E+01
  2.416785E+01  2.693017E+01
  2.693017E+01  2.892057E+01
  2.892057E+01  3.000000E+01
  3.000000E+01  3.012057E+01
  3.012057E+01  2.933017E+01
  2.933017E+01  2.776785E+01
  2.776785E+01  2.565017E+01
  2.565017E+01  2.325000E+01
  2.325000E+01  2.086983E+01
  2.086983E+01  1.881215E+01
  1.881215E+01  1.734983E+01
  1.734983E+01  1.669943E+01
  1.669943E+01  1.700000E+01
  1.700000E+01  1.829943E+01
  1.829943E+01  2.054983E+01
  2.054983E+01  2.361215E+01
  2.361215E+01  2.726983E+01
  2.726983E+01  3.125000E+01
  3.125000E+01  3.525017E+01
  3.525017E+01  3.896785E+01
  3.896785E+01  4.213017E+01
  4.213017E+01  4.452057E+01
  4.452057E+01  4.600000E+01
  4.600000E+01  4.652057E+01
  4.652057E+01  4.613017E+01
  4.613017E+01  4.496785E+01
  4.496785E+01  4.325017E+01
  4.325017E+01  4.125000E+01
  4.125000E+01  3.926983E+01
  3.926983E+01  3.761215E+01
  3.761215E+01  3.654983E+01
  3.654983E+01  3.629943E+01
  3.629943E+01  3.700000E+01
  3.700000E+01  3.869943E+01
  3.869943E+01  4.134983E+01
  4.134983E+01  4.481215E+01
  4.481215E+01  4.886983E+01
  4.886983E+01  5.325000E+01
  5.325000E+01  5.765017E+01
  5.765017E+01  6.176785E+01
  6.176785E+01  6.533017E+01
  6.533017E+01  6.812057E+01
  6.812057E+01  7.000000E+01
  7.000000E+01  7.092057E+01
  7.092057E+01  7.093017E+01
  7.093017E+01  7.016785E+01
  7.016785E+01  6.885017E+01
  6.885017E+01  6.725000E+01
  6.725000E+01  6.566983E+01
  6.566983E+01  6.441215E+01
  6.441215E+01  6.374983E+01
  6.374983E+01  6.389943E+01
  6.389943E+01  6.500000E+01
  6.500000E+01  6.709943E+01
  6.709943E+01  7.014983E+01
  7.014983E+01  7.401215E+01
  7.401215E+01  7.846983E+01
  7.846983E+01  8.325000E+01
  8.325000E+01  8.805017E+01
  8.805017E+01  9.256785E+01
  9.256785E+01  9.653017E+01
  9.653017E+01  9.972057E+01
  9.972057E+01  1.020000E+02
  1.020000E+02  1.033206E+02
  1.033206E+02  1.037302E+02
  1.037302E+02  1.033679E+02
  1.033679E+02  1.024502E+02
  1.024502E+02  1.012500E+02
  1.012500E+02  1.000698E+02
  1.000698E+02  9.921215E+01
  9.921215E+01  9.894983E+01
  9.894983E+01  9.949943E+01
  9.949943E+01  1.010000E+02
  1.000000E+00  1.499435E+00
  1.499435E+00  2.949830E+00
  2.949830E+00  5.212147E+00
  5.212147E+00  8.069830E+00
  8.069830E+00  1.125000E+01
  1.125000E+01  1.445017E+01
  1.445017E+01  1.736785E+01
  1.736785E+01  1.973017E+01
  1.973017E+01  2.132057E+01
  2.132057E+01  2.200000E+01
  2.200000E+01  2.172057E+01
  2.172057E+01  2.053017E+01
  2.053017E+01  1.856785E+01
  1.856785E+01  1.605017E+01
  1.605017E+01  1.325000E+01
  1.325000E+01  1.046983E+01
  1.046983E+01  8.012147E+00
  8.012147E+00  6.149830E+00
  6.149830E+00  5.099435E+00
  5.099435E+00  5.000000E+00
  5.000000E+00  5.899435E+00
  5.899435E+00  7.749830E+00
  7.749830E+00  1.041215E+01
  1.041215E+01  1.366983E+01
  1.366983E+01  1.725000E+01
  1.725000E+01  2.085017E+01
  2.085017E+01  2.416785E+01
  2.416785E+01  2.693017E+01
  2.693017E+01  2.892057E+01
  2.892057E+01  3.000000E+01
  3.000000E+01  3.012057E+01
  3.012057E+01  2.933017E+01
  2.933017E+01  2.776785E+01
  2.776785E+01  2.565017E+01
  2.565017E+01  2.325000E+01
  2.325000E+01  2.086983E+01
  2.086983E+01  1.881215E+01
  1.881215E+01  1.734983E+01
  1.734983E+01  1.669943E+01
  1.669943E+01  1.700000E+01
  1.700000E+01  1.829943E+01
  1.829943E+01  2.054983E+01
  2.054983E+01  2.361215E+01
  2.361215E+01  2.726983E+01
  2.726983E+01  3.125000E+01
  3.125000E+01  3.525017E+01
  3.525017E+01  3.896785E+01
  3.896785E+01  4.213017E+01
  4.213017E+01  4.452057E+01
  4.452057E+01  4.600000E+01
  4.600000E+01  4.652057E+01
  4.652057E+01  4.613017E+01
  4.613017E+01  4.496785E+01
  4.496785E+01  4.325017E+01
  4.325017E+01  4.125000E+01
  4.125000E+01  3.926983E+01
  3.926983E+01  3.761215E+01
  3.761215E+01  3.654983E+01
  3.654983E+01  3.629943E+01
  3.629943E+01  3.700000E+01
  3.700000E+01  3.869943E+01
  3.869943E+01  4.134983E+01
  4.134983E+01  4.481215E+01
  4.481215E+01  4.886983E+01
  4.886983E+01  5.325000E+01
  5.325000E+01  5.765017E+01
  5.765017E+01  6.176785E+01
  6.176785E+01  6.533017E+01
  6.533017E+01  6.812057E+01
  6.812057E+01  7.000000E+01
  7.000000E+01  7.092057E+01
  7.092057E+01  7.093017E+01
  7.093017E+01  7.016785E+01
  7.016785E+01  6.885017E+01
  6.885017E+01  6.725000E+01
  6.725000E+01  6.566983E+01
  6.566983E+01  6.441215E+01
  6.441215E+01  6.374983E+01
  6.374983E+01  6.389943E+01
  6.389943E+01  6.500000E+01
  6.500000E+01  6.709943E+01
  6.709943E+01  7.014983E+01
  7.014983E+01  7.401215E+01
  7.401215E+01  7.846983E+01
  7.846983E+01  8.325000E+01
  8.325000E+01  8.805017E+01
  8.805017E+01  9.256785E+01
  9.256785E+01  9.653017E+01
  9.653017E+01  9.972057E+01
  9.972057E+01  1.020000E+02
  1.020000E+02  1.033206E+02
  1.033206E+02  1.037302E+02
  1.037302E+02  1.033679E+02
  1.033679E+02  1.024502E+02
  1.024502E+02  1.012500E+02
  1.012500E+02  1.000698E+02
  1.000698E+02  9.921215E+01
  9.921215E+01  9.894983E+01
  9.894983E+01  9.949943E+01
  9.949943E+01  1.010000E+02
  1.000000E+00  1.499435E+00
  1.499435E+00  2.949830E+00
  2.949830E+00  5.212147E+00
  5.212147E+00  8.069830E+00
  8.069830E+00  1.125000E+01
  1.125000E+01  1.445017E+01
  1.445017E+01  1.736785E+01
  1.736785E+01  1.973017E+01
  1.973017E+01  2.132057E+01
  2.132057E+01  2.200000E+01
  2.200000E+01  2.172057E+01
  2.172057E+01  2.053017E+01
  2.053017E+01  1.856785E+01
  1.856785E+01  1.605017E+01
  1.605017E+01  1.325000E+01
  1.325000E+01  1.046983E+01
  1.046983E+01  8.012147E+00
  8.012147E+00  6.149830E+00
  6.149830E+00  5.099435E+00
  5.099435E+00  5.000000E+00
  5.000000E+00  5.899435E+00
  5.899435E+00  7.749830E+00
  7.749830E+00  1.041215E+01
  1.041215E+01  1.366983E+01
  1.366983E+01  1.725000E+01
  1.725000E+01  2.085017E+01
  2.085017E+01  2.416785E+01
  2.416785E+01  2.693017E+01
  2.693017E+01  2.892057E+01
  2.892057E+01  3.000000E+01
  3.000000E+01  3.012057E+01
  3.012057E+01  2.933017E+01
  2.933017E+01  2.776785E+01
  2.776785E+01  2.565017E+01
  2.565017E+01  2.325000E+01
  2.325000E+01  2.086983E+01
  2.086983E+01  1.881215E+01
  1.881215E+01  1.734983E+01
  1.734983E+01  1.669943E+01
  1.669943E+01  1.700000E+01
  1.700000E+01  1.829943E+01
  1.829943E+01  2.054983E+01
  2.054983E+01  2.361215E+01
  2.361215E+01  2.726983E+01
  2.726983E+01  3.125000E+01
  3.125000E+01  3.525017E+01
  3.525017E+01  3.896785E+01
  3.896785E+01  4.213017E+01
  4.213017E+01  4.452057E+01
  4.452057E+01  4.600000E+01
  4.600000E+01  4.652057E+01
  4.652057E+01  4.613017E+01
  4.613017E+01  4.496785E+01
  4.496785E+01  4.325017E+01
  4.325017E+01  4.125000E+01
  4.125000E+01  3.926983E+01
  3.926983E+01  3.761215E+01
  3.761215E+01  3.654983E+01
  3.654983E+01  3.629943E+01
  3.629943E+01  3.700000E+01
  3.700000E+01  3.869943E+01
  3.869943E+01  4.134983E+01
  4.134983E+01  4.481215E+01
  4.481215E+01  4.886983E+01
  4.886983E+01  5.325000E+01
  5.325000E+01  5.765017E+01
  5.765017E+01  6.176785E+01
  6.176785E+01  6.533017E+01
  6.533017E+01  6.812057E+01
  6.812057E+01  7.000000E+01
  7.000000E+01  7.092057E+01
  7.092057E+01  7.093017E+01
  7.093017E+01  7.016785E+01
  7.016785E+01  6.885017E+01
  6.885017E+01  6.725000E+01
  6.725000E+01  6.566983E+01
  6.566983E+01  6.441215E+01
  6.441215E+01  6.374983E+01
  6.374983E+01  6.389943E+01
  6.389943E+01  6.500000E+01
  6.500000E+01  6.709943E+01
  6.709943E+01  7.014983E+01
  7.014983E+01  7.401215E+01
  7.401215E+01  7.846983E+01
  7.846983E+01  8.325000E+01
  8.325000E+01  8.805017E+01
  8.805017E+01  9.256785E+01
  9.256785E+01  9.653017E+01
  9.653017E+01  9.972057E+01
  9.972057E+01  1.020000E+02
  1.020000E+02  1.033206E+02
  1.033206E+02  1.037302E+02
  1.037302E+02  1.033679E+02
  1.033679E+02  1.024502E+02
  1.024502E+02  1.012500E+02
  1.012500E+02  1.000698E+02
  1.000698E+02  9.921215E+01
  9.921215E+01  9.894983E+01
  9.894983E+01  9.949943E+01
  9.949943E+01  1.010000E+02
  1.000000E+00  1.499435E+00
  1.499435E+00  2.949830E+00
  2.949830E+00  5.212147E+00
  5.212147E+00  8.069830E+00
  8.069830E+00  1.125000E+01
  1.125000E+01  1.445017E+01
  1.445017E+01  1.736785E+01
  1.736785E+01  1.973017E+01
  1.973017E+01  2.132057E+01
  2.132057E+01  2.200000E+01
  2.200000E+01  2.172057E+01
  2.172057E+01  2.053017E+01
  2.053017E+01  1.856785E+01
  1.856785E+01  1.605017E+01
  1.605017E+01  1.325000E+01
  1.325000E+01  1.046983E+01
  1.046983E+01  8.012147E+00
  8.012147E+00  6.149830E+00
  6.149830E+00  5.099435E+00
  5.099435E+00  5.000000E+00
  5.000000E+00  5.899435E+00
  5.899435E+00  7.749830E+00
  7.749830E+00  1.041215E+01
  1.041215E+01  1.366983E+01
  1.366983E+01  1.725000E+01
  1.725000E+01  2.085017E+01
  2.085017E+01  2.416785E+01
  2.416785E+01  2.693017E+01
  2.693017E+01  2.892057E+01
  2.892057E+01  3.000000E+01