

-- Copyright (C) 2023 NORCE

SPECGRID
25 1 20 1 F
/

COORD
 0.000000E+00  0.000000E+00 0  0.000000E+00  0.000000E+00  1.000000E+02
 1.000000E+02 -3.249197E+01 0  1.000000E+02 -3.249197E+01  1.000000E+02
 2.000000E+02 -6.498394E+01 0  2.000000E+02 -6.498394E+01  1.000000E+02
 3.000000E+02 -9.747591E+01 0  3.000000E+02 -9.747591E+01  1.000000E+02
 4.000000E+02 -1.299679E+02 0  4.000000E+02 -1.299679E+02  1.000000E+02
 5.000000E+02 -1.624598E+02 0  5.000000E+02 -1.624598E+02  1.000000E+02
 6.000000E+02 -1.949518E+02 0  6.000000E+02 -1.949518E+02  1.000000E+02
 7.000000E+02 -2.274438E+02 0  7.000000E+02 -2.274438E+02  1.000000E+02
 8.000000E+02 -2.599358E+02 0  8.000000E+02 -2.599358E+02  1.000000E+02
 9.000000E+02 -2.924277E+02 0  9.000000E+02 -2.924277E+02  1.000000E+02
 1.000000E+03 -3.249197E+02 0  1.000000E+03 -3.249197E+02  1.000000E+02
 1.100000E+03 -3.574117E+02 0  1.100000E+03 -3.574117E+02  1.000000E+02
 1.200000E+03 -3.899036E+02 0  1.200000E+03 -3.899036E+02  1.000000E+02
 1.300000E+03 -4.223956E+02 0  1.300000E+03 -4.223956E+02  1.000000E+02
 1.400000E+03 -4.548876E+02 0  1.400000E+03 -4.548876E+02  1.000000E+02
 1.500000E+03 -4.873795E+02 0  1.500000E+03 -4.873795E+02  1.000000E+02
 1.600000E+03 -5.198715E+02 0  1.600000E+03 -5.198715E+02  1.000000E+02
 1.700000E+03 -5.523635E+02 0  1.700000E+03 -5.523635E+02  1.000000E+02
 1.800000E+03 -5.848555E+02 0  1.800000E+03 -5.848555E+02  1.000000E+02
 1.900000E+03 -6.173474E+02 0  1.900000E+03 -6.173474E+02  1.000000E+02
 2.000000E+03 -6.498394E+02 0  2.000000E+03 -6.498394E+02  1.000000E+02
 2.100000E+03 -6.823314E+02 0  2.100000E+03 -6.823314E+02  1.000000E+02
 2.200000E+03 -7.148233E+02 0  2.200000E+03 -7.148233E+02  1.000000E+02
 2.300000E+03 -7.473153E+02 0  2.300000E+03 -7.473153E+02  1.000000E+02
 2.400000E+03 -7.798073E+02 0  2.400000E+03 -7.798073E+02  1.000000E+02
 2.500000E+03 -8.122992E+02 0  2.500000E+03 -8.122992E+02  1.000000E+02
 0.000000E+00  0.000000E+00 0  0.000000E+00  0.000000E+00  1.000000E+02
 1.000000E+02  3.249197E+01 0  1.000000E+02  3.249197E+01  1.000000E+02
 2.000000E+02  6.498394E+01 0  2.000000E+02  6.498394E+01  1.000000E+02
 3.000000E+02  9.747591E+01 0  3.000000E+02  9.747591E+01  1.000000E+02
 4.000000E+02  1.299679E+02 0  4.000000E+02  1.299679E+02  1.000000E+02
 5.000000E+02  1.624598E+02 0  5.000000E+02  1.624598E+02  1.000000E+02
 6.000000E+02  1.949518E+02 0  6.000000E+02  1.949518E+02  1.000000E+02
 7.000000E+02  2.274438E+02 0  7.000000E+02  2.274438E+02  1.000000E+02
 8.000000E+02  2.599358E+02 0  8.000000E+02  2.599358E+02  1.000000E+02
 9.000000E+02  2.924277E+02 0  9.000000E+02  2.924277E+02  1.000000E+02
 1.000000E+03  3.249197E+02 0  1.000000E+03  3.249197E+02  1.000000E+02
 1.100000E+03  3.574117E+02 0  1.100000E+03  3.574117E+02  1.000000E+02
 1.200000E+03  3.899036E+02 0  1.200000E+03  3.899036E+02  1.000000E+02
 1.300000E+03  4.223956E+02 0  1.300000E+03  4.223956E+02  1.000000E+02
 1.400000E+03  4.548876E+02 0  1.400000E+03  4.548876E+02  1.000000E+02
 1.500000E+03  4.873795E+02 0  1.500000E+03  4.873795E+02  1.000000E+02
 1.600000E+03  5.198715E+02 0  1.600000E+03  5.198715E+02  1.000000E+02
 1.700000E+03  5.523635E+02 0  1.700000E+03  5.523635E+02  1.000000E+02
 1.800000E+03  5.848555E+02 0  1.800000E+03  5.848555E+02  1.000000E+02
 1.900000E+03  6.173474E+02 0  1.900000E+03  6.173474E+02  1.000000E+02
 2.000000E+03  6.498394E+02 0  2.000000E+03  6.498394E+02  1.000000E+02
 2.100000E+03  6.823314E+02 0  2.100000E+03  6.823314E+02  1.000000E+02
 2.200000E+03  7.148233E+02 0  2.200000E+03  7.148233E+02  1.000000E+02
 2.300000E+03  7.473153E+02 0  2.300000E+03  7.473153E+02  1.000000E+02
 2.400000E+03  7.798073E+02 0  2.400000E+03  7.798073E+02  1.000000E+02
 2.500000E+03  8.122992E+02 0  2.500000E+03  8.122992E+02  1.000000E+02
/

ZCORN
  0.000000E+00  5.940398E+00
  5.940398E+00  2.306510E+01
  2.306510E+01  4.941894E+01
  4.941894E+01  8.215529E+01
  8.215529E+01  1.180408E+02
  1.180408E+02  1.539743E+02
  1.539743E+02  1.874067E+02
  1.874067E+02  2.165888E+02
  2.165888E+02  2.406304E+02
  2.406304E+02  2.593994E+02
  2.593994E+02  2.733235E+02
  2.733235E+02  2.831596E+02
  2.831596E+02  2.897858E+02
  2.897858E+02  2.940477E+02
  2.940477E+02  2.966673E+02
  2.966673E+02  2.982072E+02
  2.982072E+02  2.990734E+02
  2.990734E+02  2.995399E+02
  2.995399E+02  2.997805E+02
  2.997805E+02  2.998994E+02
  2.998994E+02  2.999557E+02
  2.999557E+02  2.999812E+02
  2.999812E+02  2.999924E+02
  2.999924E+02  2.999970E+02
  2.999970E+02  2.999989E+02
  0.000000E+00  5.940398E+00
  5.940398E+00  2.306510E+01
  2.306510E+01  4.941894E+01
  4.941894E+01  8.215529E+01
  8.215529E+01  1.180408E+02
  1.180408E+02  1.539743E+02
  1.539743E+02  1.874067E+02
  1.874067E+02  2.165888E+02
  2.165888E+02  2.406304E+02
  2.406304E+02  2.593994E+02
  2.593994E+02  2.733235E+02
  2.733235E+02  2.831596E+02
  2.831596E+02  2.897858E+02
  2.897858E+02  2.940477E+02
  2.940477E+02  2.966673E+02
  2.966673E+02  2.982072E+02
  2.982072E+02  2.990734E+02
  2.990734E+02  2.995399E+02
  2.995399E+02  2.997805E+02
  2.997805E+02  2.998994E+02
  2.998994E+02  2.999557E+02
  2.999557E+02  2.999812E+02
  2.999812E+02  2.999924E+02
  2.999924E+02  2.999970E+02
  2.999970E+02  2.999989E+02
  5.000000E+00  1.094040E+01
  1.094040E+01  2.806510E+01
  2.806510E+01  5.441894E+01
  5.441894E+01  8.715529E+01
  8.715529E+01  1.230408E+02
  1.230408E+02  1.589743E+02
  1.589743E+02  1.924067E+02
  1.924067E+02  2.215888E+02
  2.215888E+02  2.456304E+02
  2.456304E+02  2.643994E+02
  2.643994E+02  2.783235E+02
  2.783235E+02  2.881596E+02
  2.881596E+02  2.947858E+02
  2.947858E+02  2.990477E+02
  2.990477E+02  3.016673E+02
  3.016673E+02  3.032072E+02
  3.032072E+02  3.040734E+02
  3.040734E+02  3.045399E+02
  3.045399E+02  3.047805E+02
  3.047805E+02  3.048994E+02
  3.048994E+02  3.049557E+02
  3.049557E+02  3.049812E+02
  3.049812E+02  3.049924E+02
  3.049924E+02  3.049970E+02
  3.049970E+02  3.049989E+02
  5.000000E+00  1.094040E+01
  1.094040E+01  2.806510E+01
  2.806510E+01  5.441894E+01
  5.441894E+01  8.715529E+01
  8.715529E+01  1.230408E+02
  1.230408E+02  1.589743E+02
  1.589743E+02  1.924067E+02
  1.924067E+02  2.215888E+02
  2.215888E+02  2.456304E+02
  2.456304E+02  2.643994E+02
  2.643994E+02  2.783235E+02
  2.783235E+02  2.881596E+02
  2.881596E+02  2.947858E+02
  2.947858E+02  2.990477E+02
  2.990477E+02  3.016673E+02
  3.016673E+02  3.032072E+02
  3.032072E+02  3.040734E+02
  3.040734E+02  3.045399E+02
  3.045399E+02  3.047805E+02
  3.047805E+02  3.048994E+02
  3.048994E+02  3.049557E+02
  3.049557E+02  3.049812E+02
  3.049812E+02  3.049924E+02
  3.049924E+02  3.049970E+02
  3.049970E+02  3.049989E+02
  5.000000E+00  1.094040E+01
  1.094040E+01  2.806510E+01
  2.806510E+01  5.441894E+01
  5.441894E+01  8.715529E+01
  8.715529E+01  1.230408E+02
  1.230408E+02  1.589743E+02
  1.589743E+02  1.924067E+02
  1.924067E+02  2.215888E+02
  2.215888E+02  2.456304E+02
  2.456304E+02  2.643994E+02
  2.643994E+02  2.783235E+02
  2.783235E+02  2.881596E+02
  2.881596E+02  2.947858E+02
  2.947858E+02  2.990477E+02
  2.990477E+02  3.016673E+02
  3.016673E+02  3.032072E+02
  3.032072E+02  3.040734E+02
  3.040734E+02  3.045399E+02
  3.045399E+02  3.047805E+02
  3.047805E+02  3.048994E+02
  3.048994E+02  3.049557E+02
  3.049557E+02  3.049812E+02
  3.049812E+02  3.049924E+02
  3.049924E+02  3.049970E+02
  3.049970E+02  3.049989E+02
  5.000000E+00  1.094040E+01
  1.094040E+01  2.806510E+01
  2.806510E+01  5.441894E+01
  5.441894E+01  8.715529E+01
  8.715529E+01  1.230408E+02
  1.230408E+02  1.589743E+02
  1.589743E+02  1.924067E+02
  1.924067E+02  2.215888E+02
  2.215888E+02  2.456304E+02
  2.456304E+02  2.643994E+02
  2.643994E+02  2.783235E+02
  2.783235E+02  2.881596E+02
  2.881596E+02  2.947858E+02
  2.947858E+02  2.990477E+02
  2.990477E+02  3.016673E+02
  3.016673E+02  3.032072E+02
  3.032072E+02  3.040734E+02
  3.040734E+02  3.045399E+02
  3.045399E+02  3.047805E+02
  3.047805E+02  3.048994E+02
  3.048994E+02  3.049557E+02
  3.049557E+02  3.049812E+02
  3.049812E+02  3.049924E+02
  3.049924E+02  3.049970E+02
  3.049970E+02  3.049989E+02
  1.000000E+01  1.594040E+01
  1.594040E+01  3.306510E+01
  3.306510E+01  5.941894E+01
  5.941894E+01  9.215529E+01
  9.215529E+01  1.280408E+02
  1.280408E+02  1.639743E+02
  1.639743E+02  1.974067E+02
  1.974067E+02  2.265888E+02
  2.265888E+02  2.506304E+02
  2.506304E+02  2.693994E+02
  2.693994E+02  2.833235E+02
  2.833235E+02  2.931596E+02
  2.931596E+02  2.997858E+02
  2.997858E+02  3.040477E+02
  3.040477E+02  3.066673E+02
  3.066673E+02  3.082072E+02
  3.082072E+02  3.090734E+02
  3.090734E+02  3.095399E+02
  3.095399E+02  3.097805E+02
  3.097805E+02  3.098994E+02
  3.098994E+02  3.099557E+02
  3.099557E+02  3.099812E+02
  3.099812E+02  3.099924E+02
  3.099924E+02  3.099970E+02
  3.099970E+02  3.099989E+02
  1.000000E+01  1.594040E+01
  1.594040E+01  3.306510E+01
  3.306510E+01  5.941894E+01
  5.941894E+01  9.215529E+01
  9.215529E+01  1.280408E+02
  1.280408E+02  1.639743E+02
  1.639743E+02  1.974067E+02
  1.974067E+02  2.265888E+02
  2.265888E+02  2.506304E+02
  2.506304E+02  2.693994E+02
  2.693994E+02  2.833235E+02
  2.833235E+02  2.931596E+02
  2.931596E+02  2.997858E+02
  2.997858E+02  3.040477E+02
  3.040477E+02  3.066673E+02
  3.066673E+02  3.082072E+02
  3.082072E+02  3.090734E+02
  3.090734E+02  3.095399E+02
  3.095399E+02  3.097805E+02
  3.097805E+02  3.098994E+02
  3.098994E+02  3.099557E+02
  3.099557E+02  3.099812E+02
  3.099812E+02  3.099924E+02
  3.099924E+02  3.099970E+02
  3.099970E+02  3.099989E+02
  1.000000E+01  1.594040E+01
  1.594040E+01  3.306510E+01
  3.306510E+01  5.941894E+01
  5.941894E+01  9.215529E+01
  9.215529E+01  1.280408E+02
  1.280408E+02  1.639743E+02
  1.639743E+02  1.974067E+02
  1.974067E+02  2.265888E+02
  2.265888E+02  2.506304E+02
  2.506304E+02  2.693994E+02
  2.693994E+02  2.833235E+02
  2.833235E+02  2.931596E+02
  2.931596E+02  2.997858E+02
  2.997858E+02  3.040477E+02
  3.040477E+02  3.066673E+02
  3.066673E+02  3.082072E+02
  3.082072E+02  3.090734E+02
  3.090734E+02  3.095399E+02
  3.095399E+02  3.097805E+02
  3.097805E+02  3.098994E+02
  3.098994E+02  3.099557E+02
  3.099557E+02  3.099812E+02
  3.099812E+02  3.099924E+02
  3.099924E+02  3.099970E+02
  3.099970E+02  3.099989E+02
  1.000000E+01  1.594040E+01
  1.594040E+01  3.306510E+01
  3.306510E+01  5.941894E+01
  5.941894E+01  9.215529E+01
  9.215529E+01  1.280408E+02
  1.280408E+02  1.639743E+02
  1.639743E+02  1.974067E+02
  1.974067E+02  2.265888E+02
  2.265888E+02  2.506304E+02
  2.506304E+02  2.693994E+02
  2.693994E+02  2.833235E+02
  2.833235E+02  2.931596E+02
  2.931596E+02  2.997858E+02
  2.997858E+02  3.040477E+02
  3.040477E+02  3.066673E+02
  3.066673E+02  3.082072E+02
  3.082072E+02  3.090734E+02
  3.090734E+02  3.095399E+02
  3.095399E+02  3.097805E+02
  3.097805E+02  3.098994E+02
  3.098994E+02  3.099557E+02
  3.099557E+02  3.099812E+02
  3.099812E+02  3.099924E+02
  3.099924E+02  3.099970E+02
  3.099970E+02  3.099989E+02
  1.500000E+01  2.094040E+01
  2.094040E+01  3.806510E+01
  3.806510E+01  6.441894E+01
  6.441894E+01  9.715529E+01
  9.715529E+01  1.330408E+02
  1.330408E+02  1.689743E+02
  1.689743E+02  2.024067E+02
  2.024067E+02  2.315888E+02
  2.315888E+02  2.556304E+02
  2.556304E+02  2.743994E+02
  2.743994E+02  2.883235E+02
  2.883235E+02  2.981596E+02
  2.981596E+02  3.047858E+02
  3.047858E+02  3.090477E+02
  3.090477E+02  3.116673E+02
  3.116673E+02  3.132072E+02
  3.132072E+02  3.140734E+02
  3.140734E+02  3.145399E+02
  3.145399E+02  3.147805E+02
  3.147805E+02  3.148994E+02
  3.148994E+02  3.149557E+02
  3.149557E+02  3.149812E+02
  3.149812E+02  3.149924E+02
  3.149924E+02  3.149970E+02
  3.149970E+02  3.149989E+02
  1.500000E+01  2.094040E+01
  2.094040E+01  3.806510E+01
  3.806510E+01  6.441894E+01
  6.441894E+01  9.715529E+01
  9.715529E+01  1.330408E+02
  1.330408E+02  1.689743E+02
  1.689743E+02  2.024067E+02
  2.024067E+02  2.315888E+02
  2.315888E+02  2.556304E+02
  2.556304E+02  2.743994E+02
  2.743994E+02  2.883235E+02
  2.883235E+02  2.981596E+02
  2.981596E+02  3.047858E+02
  3.047858E+02  3.090477E+02
  3.090477E+02  3.116673E+02
  3.116673E+02  3.132072E+02
  3.132072E+02  3.140734E+02
  3.140734E+02  3.145399E+02
  3.145399E+02  3.147805E+02
  3.147805E+02  3.148994E+02
  3.148994E+02  3.149557E+02
  3.149557E+02  3.149812E+02
  3.149812E+02  3.149924E+02
  3.149924E+02  3.149970E+02
  3.149970E+02  3.149989E+02
  1.500000E+01  2.094040E+01
  2.094040E+01  3.806510E+01
  3.806510E+01  6.441894E+01
  6.441894E+01  9.715529E+01
  9.715529E+01  1.330408E+02
  1.330408E+02  1.689743E+02
  1.689743E+02  2.024067E+02
  2.024067E+02  2.315888E+02
  2.315888E+02  2.556304E+02
  2.556304E+02  2.743994E+02
  2.743994E+02  2.883235E+02
  2.883235E+02  2.981596E+02
  2.981596E+02  3.047858E+02
  3.047858E+02  3.090477E+02
  3.090477E+02  3.116673E+02
  3.116673E+02  3.132072E+02
  3.132072E+02  3.140734E+02
  3.140734E+02  3.145399E+02
  3.145399E+02  3.147805E+02
  3.147805E+02  3.148994E+02
  3.148994E+02  3.149557E+02
  3.149557E+02  3.149812E+02
  3.149812E+02  3.149924E+02
  3.149924E+02  3.149970E+02
  3.149970E+02  3.149989E+02
  1.500000E+01  2.094040E+01
  2.094040E+01  3.806510E+01
  3.806510E+01  6.441894E+01
  6.441894E+01  9.715529E+01
  9.715529E+01  1.330408E+02
  1.330408E+02  1.689743E+02
  1.689743E+02  2.024067E+02
  2.024067E+02  2.315888E+02
  2.315888E+02  2.556304E+02
  2.556304E+02  2.743994E+02
  2.743994E+02  2.883235E+02
  2.883235E+02  2.981596E+02
  2.981596E+02  3.047858E+02
  3.047858E+02  3.090477E+02
  3.090477E+02  3.116673E+02
  3.116673E+02  3.132072E+02
  3.132072E+02  3.140734E+02
  3.140734E+02  3.145399E+02
  3.145399E+02  3.147805E+02
  3.147805E+02  3.148994E+02
  3.148994E+02  3.149557E+02
  3.149557E+02  3.149812E+02
  3.149812E+02  3.149924E+02
  3.149924E+02  3.149970E+02
  3.149970E+02  3.149989E+02
  2.000000E+01  2.594040E+01
  2.594040E+01  4.306510E+01
  4.306510E+01  6.941894E+01
  6.941894E+01  1.021553E+02
  1.021553E+02  1.380408E+02
  1.380408E+02  1.739743E+02
  1.739743E+02  2.074067E+02
  2.074067E+02  2.365888E+02
  2.365888E+02  2.606304E+02
  2.606304E+02  2.793994E+02
  2.793994E+02  2.933235E+02
  2.933235E+02  3.031596E+02
  3.031596E+02  3.097858E+02
  3.097858E+02  3.140477E+02
  3.140477E+02  3.166673E+02
  3.166673E+02  3.182072E+02
  3.182072E+02  3.190734E+02
  3.190734E+02  3.195399E+02
  3.195399E+02  3.197805E+02
  3.197805E+02  3.198994E+02
  3.198994E+02  3.199557E+02
  3.199557E+02  3.199812E+02
  3.199812E+02  3.199924E+02
  3.199924E+02  3.199970E+02
  3.199970E+02  3.199989E+02
  2.000000E+01  2.594040E+01
  2.594040E+01  4.306510E+01
  4.306510E+01  6.941894E+01
  6.941894E+01  1.021553E+02
  1.021553E+02  1.380408E+02
  1.380408E+02  1.739743E+02
  1.739743E+02  2.074067E+02
  2.074067E+02  2.365888E+02
  2.365888E+02  2.606304E+02
  2.606304E+02  2.793994E+02
  2.793994E+02  2.933235E+02
  2.933235E+02  3.031596E+02
  3.031596E+02  3.097858E+02
  3.097858E+02  3.140477E+02
  3.140477E+02  3.166673E+02
  3.166673E+02  3.182072E+02
  3.182072E+02  3.190734E+02
  3.190734E+02  3.195399E+02
  3.195399E+02  3.197805E+02
  3.197805E+02  3.198994E+02
  3.198994E+02  3.199557E+02
  3.199557E+02  3.199812E+02
  3.199812E+02  3.199924E+02
  3.199924E+02  3.199970E+02
  3.199970E+02  3.199989E+02
  2.000000E+01  2.594040E+01
  2.594040E+01  4.306510E+01
  4.306510E+01  6.941894E+01
  6.941894E+01  1.021553E+02
  1.021553E+02  1.380408E+02
  1.380408E+02  1.739743E+02
  1.739743E+02  2.074067E+02
  2.074067E+02  2.365888E+02
  2.365888E+02  2.606304E+02
  2.606304E+02  2.793994E+02
  2.793994E+02  2.933235E+02
  2.933235E+02  3.031596E+02
  3.031596E+02  3.097858E+02
  3.097858E+02  3.140477E+02
  3.140477E+02  3.166673E+02
  3.166673E+02  3.182072E+02
  3.182072E+02  3.190734E+02
  3.190734E+02  3.195399E+02
  3.195399E+02  3.197805E+02
  3.197805E+02  3.198994E+02
  3.198994E+02  3.199557E+02
  3.199557E+02  3.199812E+02
  3.199812E+02  3.199924E+02
  3.199924E+02  3.199970E+02
  3.199970E+02  3.199989E+02
  2.000000E+01  2.594040E+01
  2.594040E+01  4.306510E+01
  4.306510E+01  6.941894E+01
  6.941894E+01  1.021553E+02
  1.021553E+02  1.380408E+02
  1.380408E+02  1.739743E+02
  1.739743E+02  2.074067E+02
  2.074067E+02  2.365888E+02
  2.365888E+02  2.606304E+02
  2.606304E+02  2.793994E+02
  2.793994E+02  2.933235E+02
  2.933235E+02  3.031596E+02
  3.031596E+02  3.097858E+02
  3.097858E+02  3.140477E+02
  3.140477E+02  3.166673E+02
  3.166673E+02  3.182072E+02
  3.182072E+02  3.190734E+02
  3.190734E+02  3.195399E+02
  3.195399E+02  3.197805E+02
  3.197805E+02  3.198994E+02
  3.198994E+02  3.199557E+02
  3.199557E+02  3.199812E+02
  3.199812E+02  3.199924E+02
  3.199924E+02  3.199970E+02
  3.199970E+02  3.199989E+02
  2.500000E+01  3.094040E+01
  3.094040E+01  4.806510E+01
  4.806510E+01  7.441894E+01
  7.441894E+01  1.071553E+02
  1.071553E+02  1.430408E+02
  1.430408E+02  1.789743E+02
  1.789743E+02  2.124067E+02
  2.124067E+02  2.415888E+02
  2.415888E+02  2.656304E+02
  2.656304E+02  2.843994E+02
  2.843994E+02  2.983235E+02
  2.983235E+02  3.081596E+02
  3.081596E+02  3.147858E+02
  3.147858E+02  3.190477E+02
  3.190477E+02  3.216673E+02
  3.216673E+02  3.232072E+02
  3.232072E+02  3.240734E+02
  3.240734E+02  3.245399E+02
  3.245399E+02  3.247805E+02
  3.247805E+02  3.248994E+02
  3.248994E+02  3.249557E+02
  3.249557E+02  3.249812E+02
  3.249812E+02  3.249924E+02
  3.249924E+02  3.249970E+02
  3.249970E+02  3.249989E+02
  2.500000E+01  3.094040E+01
  3.094040E+01  4.806510E+01
  4.806510E+01  7.441894E+01
  7.441894E+01  1.071553E+02
  1.071553E+02  1.430408E+02
  1.430408E+02  1.789743E+02
  1.789743E+02  2.124067E+02
  2.124067E+02  2.415888E+02
  2.415888E+02  2.656304E+02
  2.656304E+02  2.843994E+02
  2.843994E+02  2.983235E+02
  2.983235E+02  3.081596E+02
  3.081596E+02  3.147858E+02
  3.147858E+02  3.190477E+02
  3.190477E+02  3.216673E+02
  3.216673E+02  3.232072E+02
  3.232072E+02  3.240734E+02
  3.240734E+02  3.245399E+02
  3.245399E+02  3.247805E+02
  3.247805E+02  3.248994E+02
  3.248994E+02  3.249557E+02
  3.249557E+02  3.249812E+02
  3.249812E+02  3.249924E+02
  3.249924E+02  3.249970E+02
  3.249970E+02  3.249989E+02
  2.500000E+01  3.094040E+01
  3.094040E+01  4.806510E+01
  4.806510E+01  7.441894E+01
  7.441894E+01  1.071553E+02
  1.071553E+02  1.430408E+02
  1.430408E+02  1.789743E+02
  1.789743E+02  2.124067E+02
  2.124067E+02  2.415888E+02
  2.415888E+02  2.656304E+02
  2.656304E+02  2.843994E+02
  2.843994E+02  2.983235E+02
  2.983235E+02  3.081596E+02
  3.081596E+02  3.147858E+02
  3.147858E+02  3.190477E+02
  3.190477E+02  3.216673E+02
  3.216673E+02  3.232072E+02
  3.232072E+02  3.240734E+02
  3.240734E+02  3.245399E+02
  3.245399E+02  3.247805E+02
  3.247805E+02  3.248994E+02
  3.248994E+02  3.249557E+02
  3.249557E+02  3.249812E+02
  3.249812E+02  3.249924E+02
  3.249924E+02  3.249970E+02
  3.249970E+02  3.249989E+02
  2.500000E+01  3.094040E+01
  3.094040E+01  4.806510E+01
  4.806510E+01  7.441894E+01
  7.441894E+01  1.071553E+02
  1.071553E+02  1.430408E+02
  1.430408E+02  1.789743E+02
  1.789743E+02  2.124067E+02
  2.124067E+02  2.415888E+02
  2.415888E+02  2.656304E+02
  2.656304E+02  2.843994E+02
  2.843994E+02  2.983235E+02
  2.983235E+02  3.081596E+02
  3.081596E+02  3.147858E+02
  3.147858E+02  3.190477E+02
  3.190477E+02  3.216673E+02
  3.216673E+02  3.232072E+02
  3.232072E+02  3.240734E+02
  3.240734E+02  3.245399E+02
  3.245399E+02  3.247805E+02
  3.247805E+02  3.248994E+02
  3.248994E+02  3.249557E+02
  3.249557E+02  3.249812E+02
  3.249812E+02  3.249924E+02
  3.249924E+02  3.249970E+02
  3.249970E+02  3.249989E+02
  3.000000E+01  3.594040E+01
  3.594040E+01  5.306510E+01
  5.306510E+01  7.941894E+01
  7.941894E+01  1.121553E+02
  1.121553E+02  1.480408E+02
  1.480408E+02  1.839743E+02
  1.839743E+02  2.174067E+02
  2.174067E+02  2.465888E+02
  2.465888E+02  2.706304E+02
  2.706304E+02  2.893994E+02
  2.893994E+02  3.033235E+02
  3.033235E+02  3.131596E+02
  3.131596E+02  3.197858E+02
  3.197858E+02  3.240477E+02
  3.240477E+02  3.266673E+02
  3.266673E+02  3.282072E+02
  3.282072E+02  3.290734E+02
  3.290734E+02  3.295399E+02
  3.295399E+02  3.297805E+02
  3.297805E+02  3.298994E+02
  3.298994E+02  3.299557E+02
  3.299557E+02  3.299812E+02
  3.299812E+02  3.299924E+02
  3.299924E+02  3.299970E+02
  3.299970E+02  3.299989E+02
  3.000000E+01  3.594040E+01
  3.594040E+01  5.306510E+01
  5.306510E+01  7.941894E+01
  7.941894E+01  1.121553E+02
  1.121553E+02  1.480408E+02
  1.480408E+02  1.839743E+02
  1.839743E+02  2.174067E+02
  2.174067E+02  2.465888E+02
  2.465888E+02  2.706304E+02
  2.706304E+02  2.893994E+02
  2.893994E+02  3.033235E+02
  3.033235E+02  3.131596E+02
  3.131596E+02  3.197858E+02
  3.197858E+02  3.240477E+02
  3.240477E+02  3.266673E+02
  3.266673E+02  3.282072E+02
  3.282072E+02  3.290734E+02
  3.290734E+02  3.295399E+02
  3.295399E+02  3.297805E+02
  3.297805E+02  3.298994E+02
  3.298994E+02  3.299557E+02
  3.299557E+02  3.299812E+02
  3.299812E+02  3.299924E+02
  3.299924E+02  3.299970E+02
  3.299970E+02  3.299989E+02
  3.000000E+01  3.594040E+01
  3.594040E+01  5.306510E+01
  5.306510E+01  7.941894E+01
  7.941894E+01  1.121553E+02
  1.121553E+02  1.480408E+02
  1.480408E+02  1.839743E+02
  1.839743E+02  2.174067E+02
  2.174067E+02  2.465888E+02
  2.465888E+02  2.706304E+02
  2.706304E+02  2.893994E+02
  2.893994E+02  3.033235E+02
  3.033235E+02  3.131596E+02
  3.131596E+02  3.197858E+02
  3.197858E+02  3.240477E+02
  3.240477E+02  3.266673E+02
  3.266673E+02  3.282072E+02
  3.282072E+02  3.290734E+02
  3.290734E+02  3.295399E+02
  3.295399E+02  3.297805E+02
  3.297805E+02  3.298994E+02
  3.298994E+02  3.299557E+02
  3.299557E+02  3.299812E+02
  3.299812E+02  3.299924E+02
  3.299924E+02  3.299970E+02
  3.299970E+02  3.299989E+02
  3.000000E+01  3.594040E+01
  3.594040E+01  5.306510E+01
  5.306510E+01  7.941894E+01
  7.941894E+01  1.121553E+02
  1.121553E+02  1.480408E+02
  1.480408E+02  1.839743E+02
  1.839743E+02  2.174067E+02
  2.174067E+02  2.465888E+02
  2.465888E+02  2.706304E+02
  2.706304E+02  2.893994E+02
  2.893994E+02  3.033235E+02
  3.033235E+02  3.131596E+02
  3.131596E+02  3.197858E+02
  3.197858E+02  3.240477E+02
  3.240477E+02  3.266673E+02
  3.266673E+02  3.282072E+02
  3.282072E+02  3.290734E+02
  3.290734E+02  3.295399E+02
  3.295399E+02  3.297805E+02
  3.297805E+02  3.298994E+02
  3.298994E+02  3.299557E+02
  3.299557E+02  3.299812E+02
  3.299812E+02  3.299924E+02
  3.299924E+02  3.299970E+02
  3.299970E+02  3.299989E+02
  3.500000E+01  4.094040E+01
  4.094040E+01  5.806510E+01
  5.806510E+01  8.441894E+01
  8.441894E+01  1.171553E+02
  1.171553E+02  1.530408E+02
  1.530408E+02  1.889743E+02
  1.889743E+02  2.224067E+02
  2.224067E+02  2.515888E+02
  2.515888E+02  2.756304E+02
  2.756304E+02  2.943994E+02
  2.943994E+02  3.083235E+02
  3.083235E+02  3.181596E+02
  3.181596E+02  3.247858E+02
  3.247858E+02  3.290477E+02
  3.290477E+02  3.316673E+02
  3.316673E+02  3.332072E+02
  3.332072E+02  3.340734E+02
  3.340734E+02  3.345399E+02
  3.345399E+02  3.347805E+02
  3.347805E+02  3.348994E+02
  3.348994E+02  3.349557E+02
  3.349557E+02  3.349812E+02
  3.349812E+02  3.349924E+02
  3.349924E+02  3.349970E+02
  3.349970E+02  3.349989E+02
  3.500000E+01  4.094040E+01
  4.094040E+01  5.806510E+01
  5.806510E+01  8.441894E+01
  8.441894E+01  1.171553E+02
  1.171553E+02  1.530408E+02
  1.530408E+02  1.889743E+02
  1.889743E+02  2.224067E+02
  2.224067E+02  2.515888E+02
  2.515888E+02  2.756304E+02
  2.756304E+02  2.943994E+02
  2.943994E+02  3.083235E+02
  3.083235E+02  3.181596E+02
  3.181596E+02  3.247858E+02
  3.247858E+02  3.290477E+02
  3.290477E+02  3.316673E+02
  3.316673E+02  3.332072E+02
  3.332072E+02  3.340734E+02
  3.340734E+02  3.345399E+02
  3.345399E+02  3.347805E+02
  3.347805E+02  3.348994E+02
  3.348994E+02  3.349557E+02
  3.349557E+02  3.349812E+02
  3.349812E+02  3.349924E+02
  3.349924E+02  3.349970E+02
  3.349970E+02  3.349989E+02
  3.500000E+01  4.094040E+01
  4.094040E+01  5.806510E+01
  5.806510E+01  8.441894E+01
  8.441894E+01  1.171553E+02
  1.171553E+02  1.530408E+02
  1.530408E+02  1.889743E+02
  1.889743E+02  2.224067E+02
  2.224067E+02  2.515888E+02
  2.515888E+02  2.756304E+02
  2.756304E+02  2.943994E+02
  2.943994E+02  3.083235E+02
  3.083235E+02  3.181596E+02
  3.181596E+02  3.247858E+02
  3.247858E+02  3.290477E+02
  3.290477E+02  3.316673E+02
  3.316673E+02  3.332072E+02
  3.332072E+02  3.340734E+02
  3.340734E+02  3.345399E+02
  3.345399E+02  3.347805E+02
  3.347805E+02  3.348994E+02
  3.348994E+02  3.349557E+02
  3.349557E+02  3.349812E+02
  3.349812E+02  3.349924E+02
  3.349924E+02  3.349970E+02
  3.349970E+02  3.349989E+02
  3.500000E+01  4.094040E+01
  4.094040E+01  5.806510E+01
  5.806510E+01  8.441894E+01
  8.441894E+01  1.171553E+02
  1.171553E+02  1.530408E+02
  1.530408E+02  1.889743E+02
  1.889743E+02  2.224067E+02
  2.224067E+02  2.515888E+02
  2.515888E+02  2.756304E+02
  2.756304E+02  2.943994E+02
  2.943994E+02  3.083235E+02
  3.083235E+02  3.181596E+02
  3.181596E+02  3.247858E+02
  3.247858E+02  3.290477E+02
  3.290477E+02  3.316673E+02
  3.316673E+02  3.332072E+02
  3.332072E+02  3.340734E+02
  3.340734E+02  3.345399E+02
  3.345399E+02  3.347805E+02
  3.347805E+02  3.348994E+02
  3.348994E+02  3.349557E+02
  3.349557E+02  3.349812E+02
  3.349812E+02  3.349924E+02
  3.349924E+02  3.349970E+02
  3.349970E+02  3.349989E+02
  4.000000E+01  4.594040E+01
  4.594040E+01  6.306510E+01
  6.306510E+01  8.941894E+01
  8.941894E+01  1.221553E+02
  1.221553E+02  1.580408E+02
  1.580408E+02  1.939743E+02
  1.939743E+02  2.274067E+02
  2.274067E+02  2.565888E+02
  2.565888E+02  2.806304E+02
  2.806304E+02  2.993994E+02
  2.993994E+02  3.133235E+02
  3.133235E+02  3.231596E+02
  3.231596E+02  3.297858E+02
  3.297858E+02  3.340477E+02
  3.340477E+02  3.366673E+02
  3.366673E+02  3.382072E+02
  3.382072E+02  3.390734E+02
  3.390734E+02  3.395399E+02
  3.395399E+02  3.397805E+02
  3.397805E+02  3.398994E+02
  3.398994E+02  3.399557E+02
  3.399557E+02  3.399812E+02
  3.399812E+02  3.399924E+02
  3.399924E+02  3.399970E+02
  3.399970E+02  3.399989E+02
  4.000000E+01  4.594040E+01
  4.594040E+01  6.306510E+01
  6.306510E+01  8.941894E+01
  8.941894E+01  1.221553E+02
  1.221553E+02  1.580408E+02
  1.580408E+02  1.939743E+02
  1.939743E+02  2.274067E+02
  2.274067E+02  2.565888E+02
  2.565888E+02  2.806304E+02
  2.806304E+02  2.993994E+02
  2.993994E+02  3.133235E+02
  3.133235E+02  3.231596E+02
  3.231596E+02  3.297858E+02
  3.297858E+02  3.340477E+02
  3.340477E+02  3.366673E+02
  3.366673E+02  3.382072E+02
  3.382072E+02  3.390734E+02
  3.390734E+02  3.395399E+02
  3.395399E+02  3.397805E+02
  3.397805E+02  3.398994E+02
  3.398994E+02  3.399557E+02
  3.399557E+02  3.399812E+02
  3.399812E+02  3.399924E+02
  3.399924E+02  3.399970E+02
  3.399970E+02  3.399989E+02
  4.000000E+01  4.594040E+01
  4.594040E+01  6.306510E+01
  6.306510E+01  8.941894E+01
  8.941894E+01  1.221553E+02
  1.221553E+02  1.580408E+02
  1.580408E+02  1.939743E+02
  1.939743E+02  2.274067E+02
  2.274067E+02  2.565888E+02
  2.565888E+02  2.806304E+02
  2.806304E+02  2.993994E+02
  2.993994E+02  3.133235E+02
  3.133235E+02  3.231596E+02
  3.231596E+02  3.297858E+02
  3.297858E+02  3.340477E+02
  3.340477E+02  3.366673E+02
  3.366673E+02  3.382072E+02
  3.382072E+02  3.390734E+02
  3.390734E+02  3.395399E+02
  3.395399E+02  3.397805E+02
  3.397805E+02  3.398994E+02
  3.398994E+02  3.399557E+02
  3.399557E+02  3.399812E+02
  3.399812E+02  3.399924E+02
  3.399924E+02  3.399970E+02
  3.399970E+02  3.399989E+02
  4.000000E+01  4.594040E+01
  4.594040E+01  6.306510E+01
  6.306510E+01  8.941894E+01
  8.941894E+01  1.221553E+02
  1.221553E+02  1.580408E+02
  1.580408E+02  1.939743E+02
  1.939743E+02  2.274067E+02
  2.274067E+02  2.565888E+02
  2.565888E+02  2.806304E+02
  2.806304E+02  2.993994E+02
  2.993994E+02  3.133235E+02
  3.133235E+02  3.231596E+02
  3.231596E+02  3.297858E+02
  3.297858E+02  3.340477E+02
  3.340477E+02  3.366673E+02
  3.366673E+02  3.382072E+02
  3.382072E+02  3.390734E+02
  3.390734E+02  3.395399E+02
  3.395399E+02  3.397805E+02
  3.397805E+02  3.398994E+02
  3.398994E+02  3.399557E+02
  3.399557E+02  3.399812E+02
  3.399812E+02  3.399924E+02
  3.399924E+02  3.399970E+02
  3.399970E+02  3.399989E+02
  4.500000E+01  5.094040E+01
  5.094040E+01  6.806510E+01
  6.806510E+01  9.441894E+01
  9.441894E+01  1.271553E+02
  1.271553E+02  1.630408E+02
  1.630408E+02  1.989743E+02
  1.989743E+02  2.324067E+02
  2.324067E+02  2.615888E+02
  2.615888E+02  2.856304E+02
  2.856304E+02  3.043994E+02
  3.043994E+02  3.183235E+02
  3.183235E+02  3.281596E+02
  3.281596E+02  3.347858E+02
  3.347858E+02  3.390477E+02
  3.390477E+02  3.416673E+02
  3.416673E+02  3.432072E+02
  3.432072E+02  3.440734E+02
  3.440734E+02  3.445399E+02
  3.445399E+02  3.447805E+02
  3.447805E+02  3.448994E+02
  3.448994E+02  3.449557E+02
  3.449557E+02  3.449812E+02
  3.449812E+02  3.449924E+02
  3.449924E+02  3.449970E+02
  3.449970E+02  3.449989E+02
  4.500000E+01  5.094040E+01
  5.094040E+01  6.806510E+01
  6.806510E+01  9.441894E+01
  9.441894E+01  1.271553E+02
  1.271553E+02  1.630408E+02
  1.630408E+02  1.989743E+02
  1.989743E+02  2.324067E+02
  2.324067E+02  2.615888E+02
  2.615888E+02  2.856304E+02
  2.856304E+02  3.043994E+02
  3.043994E+02  3.183235E+02
  3.183235E+02  3.281596E+02
  3.281596E+02  3.347858E+02
  3.347858E+02  3.390477E+02
  3.390477E+02  3.416673E+02
  3.416673E+02  3.432072E+02
  3.432072E+02  3.440734E+02
  3.440734E+02  3.445399E+02
  3.445399E+02  3.447805E+02
  3.447805E+02  3.448994E+02
  3.448994E+02  3.449557E+02
  3.449557E+02  3.449812E+02
  3.449812E+02  3.449924E+02
  3.449924E+02  3.449970E+02
  3.449970E+02  3.449989E+02
  4.500000E+01  5.094040E+01
  5.094040E+01  6.806510E+01