

-- Copyright (C) 2023 NORCE

SPECGRID
400 1 1 1 F
/

COORD
 0.000000E+00  0.000000E+00 0  0.000000E+00  0.000000E+00  1.000000E+00
 2.500000E-01 -1.443376E-01 0  2.500000E-01 -1.443376E-01  1.000000E+00
 5.000000E-01 -2.886751E-01 0  5.000000E-01 -2.886751E-01  1.000000E+00
 7.500000E-01 -4.330127E-01 0  7.500000E-01 -4.330127E-01  1.000000E+00
 1.000000E+00 -5.773503E-01 0  1.000000E+00 -5.773503E-01  1.000000E+00
 1.250000E+00 -7.216878E-01 0  1.250000E+00 -7.216878E-01  1.000000E+00
 1.500000E+00 -8.660254E-01 0  1.500000E+00 -8.660254E-01  1.000000E+00
 1.750000E+00 -1.010363E+00 0  1.750000E+00 -1.010363E+00  1.000000E+00
 2.000000E+00 -1.154701E+00 0  2.000000E+00 -1.154701E+00  1.000000E+00
 2.250000E+00 -1.299038E+00 0  2.250000E+00 -1.299038E+00  1.000000E+00
 2.500000E+00 -1.443376E+00 0  2.500000E+00 -1.443376E+00  1.000000E+00
 2.750000E+00 -1.587713E+00 0  2.750000E+00 -1.587713E+00  1.000000E+00
 3.000000E+00 -1.732051E+00 0  3.000000E+00 -1.732051E+00  1.000000E+00
 3.250000E+00 -1.876388E+00 0  3.250000E+00 -1.876388E+00  1.000000E+00
 3.500000E+00 -2.020726E+00 0  3.500000E+00 -2.020726E+00  1.000000E+00
 3.750000E+00 -2.165064E+00 0  3.750000E+00 -2.165064E+00  1.000000E+00
 4.000000E+00 -2.309401E+00 0  4.000000E+00 -2.309401E+00  1.000000E+00
 4.250000E+00 -2.453739E+00 0  4.250000E+00 -2.453739E+00  1.000000E+00
 4.500000E+00 -2.598076E+00 0  4.500000E+00 -2.598076E+00  1.000000E+00
 4.750000E+00 -2.742414E+00 0  4.750000E+00 -2.742414E+00  1.000000E+00
 5.000000E+00 -2.886751E+00 0  5.000000E+00 -2.886751E+00  1.000000E+00
 5.250000E+00 -3.031089E+00 0  5.250000E+00 -3.031089E+00  1.000000E+00
 5.500000E+00 -3.175426E+00 0  5.500000E+00 -3.175426E+00  1.000000E+00
 5.750000E+00 -3.319764E+00 0  5.750000E+00 -3.319764E+00  1.000000E+00
 6.000000E+00 -3.464102E+00 0  6.000000E+00 -3.464102E+00  1.000000E+00
 6.250000E+00 -3.608439E+00 0  6.250000E+00 -3.608439E+00  1.000000E+00
 6.500000E+00 -3.752777E+00 0  6.500000E+00 -3.752777E+00  1.000000E+00
 6.750000E+00 -3.897114E+00 0  6.750000E+00 -3.897114E+00  1.000000E+00
 7.000000E+00 -4.041452E+00 0  7.000000E+00 -4.041452E+00  1.000000E+00
 7.250000E+00 -4.185789E+00 0  7.250000E+00 -4.185789E+00  1.000000E+00
 7.500000E+00 -4.330127E+00 0  7.500000E+00 -4.330127E+00  1.000000E+00
 7.750000E+00 -4.474465E+00 0  7.750000E+00 -4.474465E+00  1.000000E+00
 8.000000E+00 -4.618802E+00 0  8.000000E+00 -4.618802E+00  1.000000E+00
 8.250000E+00 -4.763140E+00 0  8.250000E+00 -4.763140E+00  1.000000E+00
 8.500000E+00 -4.907477E+00 0  8.500000E+00 -4.907477E+00  1.000000E+00
 8.750000E+00 -5.051815E+00 0  8.750000E+00 -5.051815E+00  1.000000E+00
 9.000000E+00 -5.196152E+00 0  9.000000E+00 -5.196152E+00  1.000000E+00
 9.250000E+00 -5.340490E+00 0  9.250000E+00 -5.340490E+00  1.000000E+00
 9.500000E+00 -5.484828E+00 0  9.500000E+00 -5.484828E+00  1.000000E+00
 9.750000E+00 -5.629165E+00 0  9.750000E+00 -5.629165E+00  1.000000E+00
 1.000000E+01 -5.773503E+00 0  1.000000E+01 -5.773503E+00  1.000000E+00
 1.025000E+01 -5.917840E+00 0  1.025000E+01 -5.917840E+00  1.000000E+00
 1.050000E+01 -6.062178E+00 0  1.050000E+01 -6.062178E+00  1.000000E+00
 1.075000E+01 -6.206515E+00 0  1.075000E+01 -6.206515E+00  1.000000E+00
 1.100000E+01 -6.350853E+00 0  1.100000E+01 -6.350853E+00  1.000000E+00
 1.125000E+01 -6.495191E+00 0  1.125000E+01 -6.495191E+00  1.000000E+00
 1.150000E+01 -6.639528E+00 0  1.150000E+01 -6.639528E+00  1.000000E+00
 1.175000E+01 -6.783866E+00 0  1.175000E+01 -6.783866E+00  1.000000E+00
 1.200000E+01 -6.928203E+00 0  1.200000E+01 -6.928203E+00  1.000000E+00
 1.225000E+01 -7.072541E+00 0  1.225000E+01 -7.072541E+00  1.000000E+00
 1.250000E+01 -7.216878E+00 0  1.250000E+01 -7.216878E+00  1.000000E+00
 1.275000E+01 -7.361216E+00 0  1.275000E+01 -7.361216E+00  1.000000E+00
 1.300000E+01 -7.505553E+00 0  1.300000E+01 -7.505553E+00  1.000000E+00
 1.325000E+01 -7.649891E+00 0  1.325000E+01 -7.649891E+00  1.000000E+00
 1.350000E+01 -7.794229E+00 0  1.350000E+01 -7.794229E+00  1.000000E+00
 1.375000E+01 -7.938566E+00 0  1.375000E+01 -7.938566E+00  1.000000E+00
 1.400000E+01 -8.082904E+00 0  1.400000E+01 -8.082904E+00  1.000000E+00
 1.425000E+01 -8.227241E+00 0  1.425000E+01 -8.227241E+00  1.000000E+00
 1.450000E+01 -8.371579E+00 0  1.450000E+01 -8.371579E+00  1.000000E+00
 1.475000E+01 -8.515916E+00 0  1.475000E+01 -8.515916E+00  1.000000E+00
 1.500000E+01 -8.660254E+00 0  1.500000E+01 -8.660254E+00  1.000000E+00
 1.525000E+01 -8.804592E+00 0  1.525000E+01 -8.804592E+00  1.000000E+00
 1.550000E+01 -8.948929E+00 0  1.550000E+01 -8.948929E+00  1.000000E+00
 1.575000E+01 -9.093267E+00 0  1.575000E+01 -9.093267E+00  1.000000E+00
 1.600000E+01 -9.237604E+00 0  1.600000E+01 -9.237604E+00  1.000000E+00
 1.625000E+01 -9.381942E+00 0  1.625000E+01 -9.381942E+00  1.000000E+00
 1.650000E+01 -9.526279E+00 0  1.650000E+01 -9.526279E+00  1.000000E+00
 1.675000E+01 -9.670617E+00 0  1.675000E+01 -9.670617E+00  1.000000E+00
 1.700000E+01 -9.814955E+00 0  1.700000E+01 -9.814955E+00  1.000000E+00
 1.725000E+01 -9.959292E+00 0  1.725000E+01 -9.959292E+00  1.000000E+00
 1.750000E+01 -1.010363E+01 0  1.750000E+01 -1.010363E+01  1.000000E+00
 1.775000E+01 -1.024797E+01 0  1.775000E+01 -1.024797E+01  1.000000E+00
 1.800000E+01 -1.039230E+01 0  1.800000E+01 -1.039230E+01  1.000000E+00
 1.825000E+01 -1.053664E+01 0  1.825000E+01 -1.053664E+01  1.000000E+00
 1.850000E+01 -1.068098E+01 0  1.850000E+01 -1.068098E+01  1.000000E+00
 1.875000E+01 -1.082532E+01 0  1.875000E+01 -1.082532E+01  1.000000E+00
 1.900000E+01 -1.096966E+01 0  1.900000E+01 -1.096966E+01  1.000000E+00
 1.925000E+01 -1.111399E+01 0  1.925000E+01 -1.111399E+01  1.000000E+00
 1.950000E+01 -1.125833E+01 0  1.950000E+01 -1.125833E+01  1.000000E+00
 1.975000E+01 -1.140267E+01 0  1.975000E+01 -1.140267E+01  1.000000E+00
 2.000000E+01 -1.154701E+01 0  2.000000E+01 -1.154701E+01  1.000000E+00
 2.025000E+01 -1.169134E+01 0  2.025000E+01 -1.169134E+01  1.000000E+00
 2.050000E+01 -1.183568E+01 0  2.050000E+01 -1.183568E+01  1.000000E+00
 2.075000E+01 -1.198002E+01 0  2.075000E+01 -1.198002E+01  1.000000E+00
 2.100000E+01 -1.212436E+01 0  2.100000E+01 -1.212436E+01  1.000000E+00
 2.125000E+01 -1.226869E+01 0  2.125000E+01 -1.226869E+01  1.000000E+00
 2.150000E+01 -1.241303E+01 0  2.150000E+01 -1.241303E+01  1.000000E+00
 2.175000E+01 -1.255737E+01 0  2.175000E+01 -1.255737E+01  1.000000E+00
 2.200000E+01 -1.270171E+01 0  2.200000E+01 -1.270171E+01  1.000000E+00
 2.225000E+01 -1.284604E+01 0  2.225000E+01 -1.284604E+01  1.000000E+00
 2.250000E+01 -1.299038E+01 0  2.250000E+01 -1.299038E+01  1.000000E+00
 2.275000E+01 -1.313472E+01 0  2.275000E+01 -1.313472E+01  1.000000E+00
 2.300000E+01 -1.327906E+01 0  2.300000E+01 -1.327906E+01  1.000000E+00
 2.325000E+01 -1.342339E+01 0  2.325000E+01 -1.342339E+01  1.000000E+00
 2.350000E+01 -1.356773E+01 0  2.350000E+01 -1.356773E+01  1.000000E+00
 2.375000E+01 -1.371207E+01 0  2.375000E+01 -1.371207E+01  1.000000E+00
 2.400000E+01 -1.385641E+01 0  2.400000E+01 -1.385641E+01  1.000000E+00
 2.425000E+01 -1.400074E+01 0  2.425000E+01 -1.400074E+01  1.000000E+00
 2.450000E+01 -1.414508E+01 0  2.450000E+01 -1.414508E+01  1.000000E+00
 2.475000E+01 -1.428942E+01 0  2.475000E+01 -1.428942E+01  1.000000E+00
 2.500000E+01 -1.443376E+01 0  2.500000E+01 -1.443376E+01  1.000000E+00
 2.525000E+01 -1.457809E+01 0  2.525000E+01 -1.457809E+01  1.000000E+00
 2.550000E+01 -1.472243E+01 0  2.550000E+01 -1.472243E+01  1.000000E+00
 2.575000E+01 -1.486677E+01 0  2.575000E+01 -1.486677E+01  1.000000E+00
 2.600000E+01 -1.501111E+01 0  2.600000E+01 -1.501111E+01  1.000000E+00
 2.625000E+01 -1.515544E+01 0  2.625000E+01 -1.515544E+01  1.000000E+00
 2.650000E+01 -1.529978E+01 0  2.650000E+01 -1.529978E+01  1.000000E+00
 2.675000E+01 -1.544412E+01 0  2.675000E+01 -1.544412E+01  1.000000E+00
 2.700000E+01 -1.558846E+01 0  2.700000E+01 -1.558846E+01  1.000000E+00
 2.725000E+01 -1.573279E+01 0  2.725000E+01 -1.573279E+01  1.000000E+00
 2.750000E+01 -1.587713E+01 0  2.750000E+01 -1.587713E+01  1.000000E+00
 2.775000E+01 -1.602147E+01 0  2.775000E+01 -1.602147E+01  1.000000E+00
 2.800000E+01 -1.616581E+01 0  2.800000E+01 -1.616581E+01  1.000000E+00
 2.825000E+01 -1.631015E+01 0  2.825000E+01 -1.631015E+01  1.000000E+00
 2.850000E+01 -1.645448E+01 0  2.850000E+01 -1.645448E+01  1.000000E+00
 2.875000E+01 -1.659882E+01 0  2.875000E+01 -1.659882E+01  1.000000E+00
 2.900000E+01 -1.674316E+01 0  2.900000E+01 -1.674316E+01  1.000000E+00
 2.925000E+01 -1.688750E+01 0  2.925000E+01 -1.688750E+01  1.000000E+00
 2.950000E+01 -1.703183E+01 0  2.950000E+01 -1.703183E+01  1.000000E+00
 2.975000E+01 -1.717617E+01 0  2.975000E+01 -1.717617E+01  1.000000E+00
 3.000000E+01 -1.732051E+01 0  3.000000E+01 -1.732051E+01  1.000000E+00
 3.025000E+01 -1.746485E+01 0  3.025000E+01 -1.746485E+01  1.000000E+00
 3.050000E+01 -1.760918E+01 0  3.050000E+01 -1.760918E+01  1.000000E+00
 3.075000E+01 -1.775352E+01 0  3.075000E+01 -1.775352E+01  1.000000E+00
 3.100000E+01 -1.789786E+01 0  3.100000E+01 -1.789786E+01  1.000000E+00
 3.125000E+01 -1.804220E+01 0  3.125000E+01 -1.804220E+01  1.000000E+00
 3.150000E+01 -1.818653E+01 0  3.150000E+01 -1.818653E+01  1.000000E+00
 3.175000E+01 -1.833087E+01 0  3.175000E+01 -1.833087E+01  1.000000E+00
 3.200000E+01 -1.847521E+01 0  3.200000E+01 -1.847521E+01  1.000000E+00
 3.225000E+01 -1.861955E+01 0  3.225000E+01 -1.861955E+01  1.000000E+00
 3.250000E+01 -1.876388E+01 0  3.250000E+01 -1.876388E+01  1.000000E+00
 3.275000E+01 -1.890822E+01 0  3.275000E+01 -1.890822E+01  1.000000E+00
 3.300000E+01 -1.905256E+01 0  3.300000E+01 -1.905256E+01  1.000000E+00
 3.325000E+01 -1.919690E+01 0  3.325000E+01 -1.919690E+01  1.000000E+00
 3.350000E+01 -1.934123E+01 0  3.350000E+01 -1.934123E+01  1.000000E+00
 3.375000E+01 -1.948557E+01 0  3.375000E+01 -1.948557E+01  1.000000E+00
 3.400000E+01 -1.962991E+01 0  3.400000E+01 -1.962991E+01  1.000000E+00
 3.425000E+01 -1.977425E+01 0  3.425000E+01 -1.977425E+01  1.000000E+00
 3.450000E+01 -1.991858E+01 0  3.450000E+01 -1.991858E+01  1.000000E+00
 3.475000E+01 -2.006292E+01 0  3.475000E+01 -2.006292E+01  1.000000E+00
 3.500000E+01 -2.020726E+01 0  3.500000E+01 -2.020726E+01  1.000000E+00
 3.525000E+01 -2.035160E+01 0  3.525000E+01 -2.035160E+01  1.000000E+00
 3.550000E+01 -2.049593E+01 0  3.550000E+01 -2.049593E+01  1.000000E+00
 3.575000E+01 -2.064027E+01 0  3.575000E+01 -2.064027E+01  1.000000E+00
 3.600000E+01 -2.078461E+01 0  3.600000E+01 -2.078461E+01  1.000000E+00
 3.625000E+01 -2.092895E+01 0  3.625000E+01 -2.092895E+01  1.000000E+00
 3.650000E+01 -2.107328E+01 0  3.650000E+01 -2.107328E+01  1.000000E+00
 3.675000E+01 -2.121762E+01 0  3.675000E+01 -2.121762E+01  1.000000E+00
 3.700000E+01 -2.136196E+01 0  3.700000E+01 -2.136196E+01  1.000000E+00
 3.725000E+01 -2.150630E+01 0  3.725000E+01 -2.150630E+01  1.000000E+00
 3.750000E+01 -2.165064E+01 0  3.750000E+01 -2.165064E+01  1.000000E+00
 3.775000E+01 -2.179497E+01 0  3.775000E+01 -2.179497E+01  1.000000E+00
 3.800000E+01 -2.193931E+01 0  3.800000E+01 -2.193931E+01  1.000000E+00
 3.825000E+01 -2.208365E+01 0  3.825000E+01 -2.208365E+01  1.000000E+00
 3.850000E+01 -2.222799E+01 0  3.850000E+01 -2.222799E+01  1.000000E+00
 3.875000E+01 -2.237232E+01 0  3.875000E+01 -2.237232E+01  1.000000E+00
 3.900000E+01 -2.251666E+01 0  3.900000E+01 -2.251666E+01  1.000000E+00
 3.925000E+01 -2.266100E+01 0  3.925000E+01 -2.266100E+01  1.000000E+00
 3.950000E+01 -2.280534E+01 0  3.950000E+01 -2.280534E+01  1.000000E+00
 3.975000E+01 -2.294967E+01 0  3.975000E+01 -2.294967E+01  1.000000E+00
 4.000000E+01 -2.309401E+01 0  4.000000E+01 -2.309401E+01  1.000000E+00
 4.025000E+01 -2.323835E+01 0  4.025000E+01 -2.323835E+01  1.000000E+00
 4.050000E+01 -2.338269E+01 0  4.050000E+01 -2.338269E+01  1.000000E+00
 4.075000E+01 -2.352702E+01 0  4.075000E+01 -2.352702E+01  1.000000E+00
 4.100000E+01 -2.367136E+01 0  4.100000E+01 -2.367136E+01  1.000000E+00
 4.125000E+01 -2.381570E+01 0  4.125000E+01 -2.381570E+01  1.000000E+00
 4.150000E+01 -2.396004E+01 0  4.150000E+01 -2.396004E+01  1.000000E+00
 4.175000E+01 -2.410437E+01 0  4.175000E+01 -2.410437E+01  1.000000E+00
 4.200000E+01 -2.424871E+01 0  4.200000E+01 -2.424871E+01  1.000000E+00
 4.225000E+01 -2.439305E+01 0  4.225000E+01 -2.439305E+01  1.000000E+00
 4.250000E+01 -2.453739E+01 0  4.250000E+01 -2.453739E+01  1.000000E+00
 4.275000E+01 -2.468172E+01 0  4.275000E+01 -2.468172E+01  1.000000E+00
 4.300000E+01 -2.482606E+01 0  4.300000E+01 -2.482606E+01  1.000000E+00
 4.325000E+01 -2.497040E+01 0  4.325000E+01 -2.497040E+01  1.000000E+00
 4.350000E+01 -2.511474E+01 0  4.350000E+01 -2.511474E+01  1.000000E+00
 4.375000E+01 -2.525907E+01 0  4.375000E+01 -2.525907E+01  1.000000E+00
 4.400000E+01 -2.540341E+01 0  4.400000E+01 -2.540341E+01  1.000000E+00
 4.425000E+01 -2.554775E+01 0  4.425000E+01 -2.554775E+01  1.000000E+00
 4.450000E+01 -2.569209E+01 0  4.450000E+01 -2.569209E+01  1.000000E+00
 4.475000E+01 -2.583642E+01 0  4.475000E+01 -2.583642E+01  1.000000E+00
 4.500000E+01 -2.598076E+01 0  4.500000E+01 -2.598076E+01  1.000000E+00
 4.525000E+01 -2.612510E+01 0  4.525000E+01 -2.612510E+01  1.000000E+00
 4.550000E+01 -2.626944E+01 0  4.550000E+01 -2.626944E+01  1.000000E+00
 4.575000E+01 -2.641377E+01 0  4.575000E+01 -2.641377E+01  1.000000E+00
 4.600000E+01 -2.655811E+01 0  4.600000E+01 -2.655811E+01  1.000000E+00
 4.625000E+01 -2.670245E+01 0  4.625000E+01 -2.670245E+01  1.000000E+00
 4.650000E+01 -2.684679E+01 0  4.650000E+01 -2.684679E+01  1.000000E+00
 4.675000E+01 -2.699113E+01 0  4.675000E+01 -2.699113E+01  1.000000E+00
 4.700000E+01 -2.713546E+01 0  4.700000E+01 -2.713546E+01  1.000000E+00
 4.725000E+01 -2.727980E+01 0  4.725000E+01 -2.727980E+01  1.000000E+00
 4.750000E+01 -2.742414E+01 0  4.750000E+01 -2.742414E+01  1.000000E+00
 4.775000E+01 -2.756848E+01 0  4.775000E+01 -2.756848E+01  1.000000E+00
 4.800000E+01 -2.771281E+01 0  4.800000E+01 -2.771281E+01  1.000000E+00
 4.825000E+01 -2.785715E+01 0  4.825000E+01 -2.785715E+01  1.000000E+00
 4.850000E+01 -2.800149E+01 0  4.850000E+01 -2.800149E+01  1.000000E+00
 4.875000E+01 -2.814583E+01 0  4.875000E+01 -2.814583E+01  1.000000E+00
 4.900000E+01 -2.829016E+01 0  4.900000E+01 -2.829016E+01  1.000000E+00
 4.925000E+01 -2.843450E+01 0  4.925000E+01 -2.843450E+01  1.000000E+00
 4.950000E+01 -2.857884E+01 0  4.950000E+01 -2.857884E+01  1.000000E+00
 4.975000E+01 -2.872318E+01 0  4.975000E+01 -2.872318E+01  1.000000E+00
 5.000000E+01 -2.886751E+01 0  5.000000E+01 -2.886751E+01  1.000000E+00
 5.025000E+01 -2.901185E+01 0  5.025000E+01 -2.901185E+01  1.000000E+00
 5.050000E+01 -2.915619E+01 0  5.050000E+01 -2.915619E+01  1.000000E+00
 5.075000E+01 -2.930053E+01 0  5.075000E+01 -2.930053E+01  1.000000E+00
 5.100000E+01 -2.944486E+01 0  5.100000E+01 -2.944486E+01  1.000000E+00
 5.125000E+01 -2.958920E+01 0  5.125000E+01 -2.958920E+01  1.000000E+00
 5.150000E+01 -2.973354E+01 0  5.150000E+01 -2.973354E+01  1.000000E+00
 5.175000E+01 -2.987788E+01 0  5.175000E+01 -2.987788E+01  1.000000E+00
 5.200000E+01 -3.002221E+01 0  5.200000E+01 -3.002221E+01  1.000000E+00
 5.225000E+01 -3.016655E+01 0  5.225000E+01 -3.016655E+01  1.000000E+00
 5.250000E+01 -3.031089E+01 0  5.250000E+01 -3.031089E+01  1.000000E+00
 5.275000E+01 -3.045523E+01 0  5.275000E+01 -3.045523E+01  1.000000E+00
 5.300000E+01 -3.059956E+01 0  5.300000E+01 -3.059956E+01  1.000000E+00
 5.325000E+01 -3.074390E+01 0  5.325000E+01 -3.074390E+01  1.000000E+00
 5.350000E+01 -3.088824E+01 0  5.350000E+01 -3.088824E+01  1.000000E+00
 5.375000E+01 -3.103258E+01 0  5.375000E+01 -3.103258E+01  1.000000E+00
 5.400000E+01 -3.117691E+01 0  5.400000E+01 -3.117691E+01  1.000000E+00
 5.425000E+01 -3.132125E+01 0  5.425000E+01 -3.132125E+01  1.000000E+00
 5.450000E+01 -3.146559E+01 0  5.450000E+01 -3.146559E+01  1.000000E+00
 5.475000E+01 -3.160993E+01 0  5.475000E+01 -3.160993E+01  1.000000E+00
 5.500000E+01 -3.175426E+01 0  5.500000E+01 -3.175426E+01  1.000000E+00
 5.525000E+01 -3.189860E+01 0  5.525000E+01 -3.189860E+01  1.000000E+00
 5.550000E+01 -3.204294E+01 0  5.550000E+01 -3.204294E+01  1.000000E+00
 5.575000E+01 -3.218728E+01 0  5.575000E+01 -3.218728E+01  1.000000E+00
 5.600000E+01 -3.233162E+01 0  5.600000E+01 -3.233162E+01  1.000000E+00
 5.625000E+01 -3.247595E+01 0  5.625000E+01 -3.247595E+01  1.000000E+00
 5.650000E+01 -3.262029E+01 0  5.650000E+01 -3.262029E+01  1.000000E+00
 5.675000E+01 -3.276463E+01 0  5.675000E+01 -3.276463E+01  1.000000E+00
 5.700000E+01 -3.290897E+01 0  5.700000E+01 -3.290897E+01  1.000000E+00
 5.725000E+01 -3.305330E+01 0  5.725000E+01 -3.305330E+01  1.000000E+00
 5.750000E+01 -3.319764E+01 0  5.750000E+01 -3.319764E+01  1.000000E+00
 5.775000E+01 -3.334198E+01 0  5.775000E+01 -3.334198E+01  1.000000E+00
 5.800000E+01 -3.348632E+01 0  5.800000E+01 -3.348632E+01  1.000000E+00
 5.825000E+01 -3.363065E+01 0  5.825000E+01 -3.363065E+01  1.000000E+00
 5.850000E+01 -3.377499E+01 0  5.850000E+01 -3.377499E+01  1.000000E+00
 5.875000E+01 -3.391933E+01 0  5.875000E+01 -3.391933E+01  1.000000E+00
 5.900000E+01 -3.406367E+01 0  5.900000E+01 -3.406367E+01  1.000000E+00
 5.925000E+01 -3.420800E+01 0  5.925000E+01 -3.420800E+01  1.000000E+00
 5.950000E+01 -3.435234E+01 0  5.950000E+01 -3.435234E+01  1.000000E+00
 5.975000E+01 -3.449668E+01 0  5.975000E+01 -3.449668E+01  1.000000E+00
 6.000000E+01 -3.464102E+01 0  6.000000E+01 -3.464102E+01  1.000000E+00
 6.025000E+01 -3.478535E+01 0  6.025000E+01 -3.478535E+01  1.000000E+00
 6.050000E+01 -3.492969E+01 0  6.050000E+01 -3.492969E+01  1.000000E+00
 6.075000E+01 -3.507403E+01 0  6.075000E+01 -3.507403E+01  1.000000E+00
 6.100000E+01 -3.521837E+01 0  6.100000E+01 -3.521837E+01  1.000000E+00
 6.125000E+01 -3.536270E+01 0  6.125000E+01 -3.536270E+01  1.000000E+00
 6.150000E+01 -3.550704E+01 0  6.150000E+01 -3.550704E+01  1.000000E+00
 6.175000E+01 -3.565138E+01 0  6.175000E+01 -3.565138E+01  1.000000E+00
 6.200000E+01 -3.579572E+01 0  6.200000E+01 -3.579572E+01  1.000000E+00
 6.225000E+01 -3.594005E+01 0  6.225000E+01 -3.594005E+01  1.000000E+00
 6.250000E+01 -3.608439E+01 0  6.250000E+01 -3.608439E+01  1.000000E+00
 6.275000E+01 -3.622873E+01 0  6.275000E+01 -3.622873E+01  1.000000E+00
 6.300000E+01 -3.637307E+01 0  6.300000E+01 -3.637307E+01  1.000000E+00
 6.325000E+01 -3.651740E+01 0  6.325000E+01 -3.651740E+01  1.000000E+00
 6.350000E+01 -3.666174E+01 0  6.350000E+01 -3.666174E+01  1.000000E+00
 6.375000E+01 -3.680608E+01 0  6.375000E+01 -3.680608E+01  1.000000E+00
 6.400000E+01 -3.695042E+01 0  6.400000E+01 -3.695042E+01  1.000000E+00
 6.425000E+01 -3.709475E+01 0  6.425000E+01 -3.709475E+01  1.000000E+00
 6.450000E+01 -3.723909E+01 0  6.450000E+01 -3.723909E+01  1.000000E+00
 6.475000E+01 -3.738343E+01 0  6.475000E+01 -3.738343E+01  1.000000E+00
 6.500000E+01 -3.752777E+01 0  6.500000E+01 -3.752777E+01  1.000000E+00
 6.525000E+01 -3.767211E+01 0  6.525000E+01 -3.767211E+01  1.000000E+00
 6.550000E+01 -3.781644E+01 0  6.550000E+01 -3.781644E+01  1.000000E+00
 6.575000E+01 -3.796078E+01 0  6.575000E+01 -3.796078E+01  1.000000E+00
 6.600000E+01 -3.810512E+01 0  6.600000E+01 -3.810512E+01  1.000000E+00
 6.625000E+01 -3.824946E+01 0  6.625000E+01 -3.824946E+01  1.000000E+00
 6.650000E+01 -3.839379E+01 0  6.650000E+01 -3.839379E+01  1.000000E+00
 6.675000E+01 -3.853813E+01 0  6.675000E+01 -3.853813E+01  1.000000E+00
 6.700000E+01 -3.868247E+01 0  6.700000E+01 -3.868247E+01  1.000000E+00
 6.725000E+01 -3.882681E+01 0  6.725000E+01 -3.882681E+01  1.000000E+00
 6.750000E+01 -3.897114E+01 0  6.750000E+01 -3.897114E+01  1.000000E+00
 6.775000E+01 -3.911548E+01 0  6.775000E+01 -3.911548E+01  1.000000E+00
 6.800000E+01 -3.925982E+01 0  6.800000E+01 -3.925982E+01  1.000000E+00
 6.825000E+01 -3.940416E+01 0  6.825000E+01 -3.940416E+01  1.000000E+00
 6.850000E+01 -3.954849E+01 0  6.850000E+01 -3.954849E+01  1.000000E+00
 6.875000E+01 -3.969283E+01 0  6.875000E+01 -3.969283E+01  1.000000E+00
 6.900000E+01 -3.983717E+01 0  6.900000E+01 -3.983717E+01  1.000000E+00
 6.925000E+01 -3.998151E+01 0  6.925000E+01 -3.998151E+01  1.000000E+00
 6.950000E+01 -4.012584E+01 0  6.950000E+01 -4.012584E+01  1.000000E+00
 6.975000E+01 -4.027018E+01 0  6.975000E+01 -4.027018E+01  1.000000E+00
 7.000000E+01 -4.041452E+01 0  7.000000E+01 -4.041452E+01  1.000000E+00
 7.025000E+01 -4.055886E+01 0  7.025000E+01 -4.055886E+01  1.000000E+00
 7.050000E+01 -4.070319E+01 0  7.050000E+01 -4.070319E+01  1.000000E+00
 7.075000E+01 -4.084753E+01 0  7.075000E+01 -4.084753E+01  1.000000E+00
 7.100000E+01 -4.099187E+01 0  7.100000E+01 -4.099187E+01  1.000000E+00
 7.125000E+01 -4.113621E+01 0  7.125000E+01 -4.113621E+01  1.000000E+00
 7.150000E+01 -4.128054E+01 0  7.150000E+01 -4.128054E+01  1.000000E+00
 7.175000E+01 -4.142488E+01 0  7.175000E+01 -4.142488E+01  1.000000E+00
 7.200000E+01 -4.156922E+01 0  7.200000E+01 -4.156922E+01  1.000000E+00
 7.225000E+01 -4.171356E+01 0  7.225000E+01 -4.171356E+01  1.000000E+00
 7.250000E+01 -4.185789E+01 0  7.250000E+01 -4.185789E+01  1.000000E+00
 7.275000E+01 -4.200223E+01 0  7.275000E+01 -4.200223E+01  1.000000E+00
 7.300000E+01 -4.214657E+01 0  7.300000E+01 -4.214657E+01  1.000000E+00
 7.325000E+01 -4.229091E+01 0  7.325000E+01 -4.229091E+01  1.000000E+00
 7.350000E+01 -4.243524E+01 0  7.350000E+01 -4.243524E+01  1.000000E+00
 7.375000E+01 -4.257958E+01 0  7.375000E+01 -4.257958E+01  1.000000E+00
 7.400000E+01 -4.272392E+01 0  7.400000E+01 -4.272392E+01  1.000000E+00
 7.425000E+01 -4.286826E+01 0  7.425000E+01 -4.286826E+01  1.000000E+00
 7.450000E+01 -4.301260E+01 0  7.450000E+01 -4.301260E+01  1.000000E+00
 7.475000E+01 -4.315693E+01 0  7.475000E+01 -4.315693E+01  1.000000E+00
 7.500000E+01 -4.330127E+01 0  7.500000E+01 -4.330127E+01  1.000000E+00
 7.525000E+01 -4.344561E+01 0  7.525000E+01 -4.344561E+01  1.000000E+00
 7.550000E+01 -4.358995E+01 0  7.550000E+01 -4.358995E+01  1.000000E+00
 7.575000E+01 -4.373428E+01 0  7.575000E+01 -4.373428E+01  1.000000E+00
 7.600000E+01 -4.387862E+01 0  7.600000E+01 -4.387862E+01  1.000000E+00
 7.625000E+01 -4.402296E+01 0  7.625000E+01 -4.402296E+01  1.000000E+00
 7.650000E+01 -4.416730E+01 0  7.650000E+01 -4.416730E+01  1.000000E+00
 7.675000E+01 -4.431163E+01 0  7.675000E+01 -4.431163E+01  1.000000E+00
 7.700000E+01 -4.445597E+01 0  7.700000E+01 -4.445597E+01  1.000000E+00
 7.725000E+01 -4.460031E+01 0  7.725000E+01 -4.460031E+01  1.000000E+00
 7.750000E+01 -4.474465E+01 0  7.750000E+01 -4.474465E+01  1.000000E+00
 7.775000E+01 -4.488898E+01 0  7.775000E+01 -4.488898E+01  1.000000E+00
 7.800000E+01 -4.503332E+01 0  7.800000E+01 -4.503332E+01  1.000000E+00
 7.825000E+01 -4.517766E+01 0  7.825000E+01 -4.517766E+01  1.000000E+00
 7.850000E+01 -4.532200E+01 0  7.850000E+01 -4.532200E+01  1.000000E+00
 7.875000E+01 -4.546633E+01 0  7.875000E+01 -4.546633E+01  1.000000E+00
 7.900000E+01 -4.561067E+01 0  7.900000E+01 -4.561067E+01  1.000000E+00
 7.925000E+01 -4.575501E+01 0  7.925000E+01 -4.575501E+01  1.000000E+00
 7.950000E+01 -4.589935E+01 0  7.950000E+01 -4.589935E+01  1.000000E+00
 7.975000E+01 -4.604368E+01 0  7.975000E+01 -4.604368E+01  1.000000E+00
 8.000000E+01 -4.618802E+01 0  8.000000E+01 -4.618802E+01  1.000000E+00
 8.025000E+01 -4.633236E+01 0  8.025000E+01 -4.633236E+01  1.000000E+00
 8.050000E+01 -4.647670E+01 0  8.050000E+01 -4.647670E+01  1.000000E+00
 8.075000E+01 -4.662103E+01 0  8.075000E+01 -4.662103E+01  1.000000E+00
 8.100000E+01 -4.676537E+01 0  8.100000E+01 -4.676537E+01  1.000000E+00
 8.125000E+01 -4.690971E+01 0  8.125000E+01 -4.690971E+01  1.000000E+00
 8.150000E+01 -4.705405E+01 0  8.150000E+01 -4.705405E+01  1.000000E+00
 8.175000E+01 -4.719838E+01 0  8.175000E+01 -4.719838E+01  1.000000E+00
 8.200000E+01 -4.734272E+01 0  8.200000E+01 -4.734272E+01  1.000000E+00
 8.225000E+01 -4.748706E+01 0  8.225000E+01 -4.748706E+01  1.000000E+00
 8.250000E+01 -4.763140E+01 0  8.250000E+01 -4.763140E+01  1.000000E+00
 8.275000E+01 -4.777573E+01 0  8.275000E+01 -4.777573E+01  1.000000E+00
 8.300000E+01 -4.792007E+01 0  8.300000E+01 -4.792007E+01  1.000000E+00
 8.325000E+01 -4.806441E+01 0  8.325000E+01 -4.806441E+01  1.000000E+00
 8.350000E+01 -4.820875E+01 0  8.350000E+01 -4.820875E+01  1.000000E+00
 8.375000E+01 -4.835309E+01 0  8.375000E+01 -4.835309E+01  1.000000E+00
 8.400000E+01 -4.849742E+01 0  8.400000E+01 -4.849742E+01  1.000000E+00
 8.425000E+01 -4.864176E+01 0  8.425000E+01 -4.864176E+01  1.000000E+00
 8.450000E+01 -4.878610E+01 0  8.450000E+01 -4.878610E+01  1.000000E+00
 8.475000E+01 -4.893044E+01 0  8.475000E+01 -4.893044E+01  1.000000E+00
 8.500000E+01 -4.907477E+01 0  8.500000E+01 -4.907477E+01  1.000000E+00
 8.525000E+01 -4.921911E+01 0  8.525000E+01 -4.921911E+01  1.000000E+00
 8.550000E+01 -4.936345E+01 0  8.550000E+01 -4.936345E+01  1.000000E+00
 8.575000E+01 -4.950779E+01 0  8.575000E+01 -4.950779E+01  1.000000E+00
 8.600000E+01 -4.965212E+01 0  8.600000E+01 -4.965212E+01  1.000000E+00
 8.625000E+01 -4.979646E+01 0  8.625000E+01 -4.979646E+01  1.000000E+00
 8.650000E+01 -4.994080E+01 0  8.650000E+01 -4.994080E+01  1.000000E+00
 8.675000E+01 -5.008514E+01 0  8.675000E+01 -5.008514E+01  1.000000E+00
 8.700000E+01 -5.022947E+01 0  8.700000E+01 -5.022947E+01  1.000000E+00
 8.725000E+01 -5.037381E+01 0  8.725000E+01 -5.037381E+01  1.000000E+00
 8.750000E+01 -5.051815E+01 0  8.750000E+01 -5.051815E+01  1.000000E+00
 8.775000E+01 -5.066249E+01 0  8.775000E+01 -5.066249E+01  1.000000E+00
 8.800000E+01 -5.080682E+01 0  8.800000E+01 -5.080682E+01  1.000000E+00
 8.825000E+01 -5.095116E+01 0  8.825000E+01 -5.095116E+01  1.000000E+00
 8.850000E+01 -5.109550E+01 0  8.850000E+01 -5.109550E+01  1.000000E+00
 8.875000E+01 -5.123984E+01 0  8.875000E+01 -5.123984E+01  1.000000E+00
 8.900000E+01 -5.138417E+01 0  8.900000E+01 -5.138417E+01  1.000000E+00
 8.925000E+01 -5.152851E+01 0  8.925000E+01 -5.152851E+01  1.000000E+00
 8.950000E+01 -5.167285E+01 0  8.950000E+01 -5.167285E+01  1.000000E+00
 8.975000E+01 -5.181719E+01 0  8.975000E+01 -5.181719E+01  1.000000E+00
 9.000000E+01 -5.196152E+01 0  9.000000E+01 -5.196152E+01  1.000000E+00
 9.025000E+01 -5.210586E+01 0  9.025000E+01 -5.210586E+01  1.000000E+00
 9.050000E+01 -5.225020E+01 0  9.050000E+01 -5.225020E+01  1.000000E+00
 9.075000E+01 -5.239454E+01 0  9.075000E+01 -5.239454E+01  1.000000E+00
 9.100000E+01 -5.253887E+01 0  9.100000E+01 -5.253887E+01  1.000000E+00
 9.125000E+01 -5.268321E+01 0  9.125000E+01 -5.268321E+01  1.000000E+00
 9.150000E+01 -5.282755E+01 0  9.150000E+01 -5.282755E+01  1.000000E+00
 9.175000E+01 -5.297189E+01 0  9.175000E+01 -5.297189E+01  1.000000E+00
 9.200000E+01 -5.311622E+01 0  9.200000E+01 -5.311622E+01  1.000000E+00
 9.225000E+01 -5.326056E+01 0  9.225000E+01 -5.326056E+01  1.000000E+00
 9.250000E+01 -5.340490E+01 0  9.250000E+01 -5.340490E+01  1.000000E+00
 9.275000E+01 -5.354924E+01 0  9.275000E+01 -5.354924E+01  1.000000E+00
 9.300000E+01 -5.369358E+01 0  9.300000E+01 -5.369358E+01  1.000000E+00
 9.325000E+01 -5.383791E+01 0  9.325000E+01 -5.383791E+01  1.000000E+00
 9.350000E+01 -5.398225E+01 0  9.350000E+01 -5.398225E+01  1.000000E+00
 9.375000E+01 -5.412659E+01 0  9.375000E+01 -5.412659E+01  1.000000E+00
 9.400000E+01 -5.427093E+01 0  9.400000E+01 -5.427093E+01  1.000000E+00
 9.425000E+01 -5.441526E+01 0  9.425000E+01 -5.441526E+01  1.000000E+00
 9.450000E+01 -5.455960E+01 0  9.450000E+01 -5.455960E+01  1.000000E+00
 9.475000E+01 -5.470394E+01 0  9.475000E+01 -5.470394E+01  1.000000E+00
 9.500000E+01 -5.484828E+01 0  9.500000E+01 -5.484828E+01  1.000000E+00
 9.525000E+01 -5.499261E+01 0  9.525000E+01 -5.499261E+01  1.000000E+00
 9.550000E+01 -5.513695E+01 0  9.550000E+01 -5.513695E+01  1.000000E+00
 9.575000E+01 -5.528129E+01 0  9.575000E+01 -5.528129E+01  1.000000E+00
 9.600000E+01 -5.542563E+01 0  9.600000E+01 -5.542563E+01  1.000000E+00
 9.625000E+01 -5.556996E+01 0  9.625000E+01 -5.556996E+01  1.000000E+00
 9.650000E+01 -5.571430E+01 0  9.650000E+01 -5.571430E+01  1.000000E+00
 9.675000E+01 -5.585864E+01 0  9.675000E+01 -5.585864E+01  1.000000E+00
 9.700000E+01 -5.600298E+01 0  9.700000E+01 -5.600298E+01  1.000000E+00
 9.725000E+01 -5.614731E+01 0  9.725000E+01 -5.614731E+01  1.000000E+00
 9.750000E+01 -5.629165E+01 0  9.750000E+01 -5.629165E+01  1.000000E+00
 9.775000E+01 -5.643599E+01 0  9.775000E+01 -5.643599E+01  1.000000E+00
 9.800000E+01 -5.658033E+01 0  9.800000E+01 -5.658033E+01  1.000000E+00
 9.825000E+01 -5.672466E+01 0  9.825000E+01 -5.672466E+01  1.000000E+00
 9.850000E+01 -5.686900E+01 0  9.850000E+01 -5.686900E+01  1.000000E+00
 9.875000E+01 -5.701334E+01 0  9.875000E+01 -5.701334E+01  1.000000E+00
 9.900000E+01 -5.715768E+01 0  9.900000E+01 -5.715768E+01  1.000000E+00
 9.925000E+01 -5.730201E+01 0  9.925000E+01 -5.730201E+01  1.000000E+00
 9.950000E+01 -5.744635E+01 0  9.950000E+01 -5.744635E+01  1.000000E+00
 9.975000E+01 -5.759069E+01 0  9.975000E+01 -5.759069E+01  1.000000E+00
 1.000000E+02 -5.773503E+01 0  1.000000E+02 -5.773503E+01  1.000000E+00
 0.000000E+00  0.000000E+00 0  0.000000E+00  0.000000E+00  1.000000E+00
 2.500000E-01  1.443376E-01 0  2.500000E-01  1.443376E-01  1.000000E+00
 5.000000E-01  2.886751E-01 0  5.000000E-01  2.886751E-01  1.000000E+00
 7.500000E-01  4.330127E-01 0  7.500000E-01  4.330127E-01  1.000000E+00
 1.000000E+00  5.773503E-01 0  1.000000E+00  5.773503E-01  1.000000E+00
 1.250000E+00  7.216878E-01 0  1.250000E+00  7.216878E-01  1.000000E+00
 1.500000E+00  8.660254E-01 0  1.500000E+00  8.660254E-01  1.000000E+00
 1.750000E+00  1.010363E+00 0  1.750000E+00  1.010363E+00  1.000000E+00
 2.000000E+00  1.154701E+00 0  2.000000E+00  1.154701E+00  1.000000E+00
 2.250000E+00  1.299038E+00 0  2.250000E+00  1.299038E+00  1.000000E+00
 2.500000E+00  1.443376E+00 0  2.500000E+00  1.443376E+00  1.000000E+00
 2.750000E+00  1.587713E+00 0  2.750000E+00  1.587713E+00  1.000000E+00
 3.000000E+00  1.732051E+00 0  3.000000E+00  1.732051E+00  1.000000E+00
 3.250000E+00  1.876388E+00 0  3.250000E+00  1.876388E+00  1.000000E+00